   8   8   1   0
  0.2016476E+02  0.5443702E-09  0.5443702E-09  0.5443702E-09  0.5000000E-15
  1.000000000000000E-004
  CAR 
 Si8 Band Structure                      
     28.16002022     -7.78914360  301      6.00634801      1.00000000
     -7.789  0.0000E+00  0.0000E+00
     -7.669  0.0000E+00  0.0000E+00
     -7.549  0.0000E+00  0.0000E+00
     -7.430  0.0000E+00  0.0000E+00
     -7.310  0.0000E+00  0.0000E+00
     -7.190  0.0000E+00  0.0000E+00
     -7.070  0.0000E+00  0.0000E+00
     -6.950  0.0000E+00  0.0000E+00
     -6.830  0.0000E+00  0.0000E+00
     -6.711  0.0000E+00  0.0000E+00
     -6.591  0.0000E+00  0.0000E+00
     -6.471  0.0000E+00  0.0000E+00
     -6.351  0.6755E-08  0.8094E-09
     -6.231  0.9495E-02  0.1138E-02
     -6.112  0.1015E+01  0.1228E+00
     -5.992  0.1012E+01  0.2440E+00
     -5.872  0.6151E+00  0.3177E+00
     -5.752  0.4922E+00  0.3767E+00
     -5.632  0.4249E+00  0.4276E+00
     -5.512  0.3841E+00  0.4737E+00
     -5.393  0.3530E+00  0.5160E+00
     -5.273  0.3232E+00  0.5547E+00
     -5.153  0.3082E+00  0.5916E+00
     -5.033  0.2967E+00  0.6272E+00
     -4.913  0.2822E+00  0.6610E+00
     -4.793  0.4613E+00  0.7163E+00
     -4.674  0.1484E+01  0.8941E+00
     -4.554  0.3244E+01  0.1283E+01
     -4.434  0.3103E+01  0.1655E+01
     -4.314  0.2451E+01  0.1948E+01
     -4.194  0.2259E+01  0.2219E+01
     -4.074  0.5453E+01  0.2872E+01
     -3.955  0.5081E+01  0.3481E+01
     -3.835  0.6054E+01  0.4207E+01
     -3.715  0.6183E+01  0.4948E+01
     -3.595  0.3910E+01  0.5416E+01
     -3.475  0.3666E+01  0.5856E+01
     -3.355  0.3775E+01  0.6308E+01
     -3.236  0.2622E+01  0.6622E+01
     -3.116  0.1258E+01  0.6773E+01
     -2.996  0.1182E+01  0.6914E+01
     -2.876  0.1157E+01  0.7053E+01
     -2.756  0.1099E+01  0.7185E+01
     -2.636  0.9978E+00  0.7304E+01
     -2.517  0.9828E+00  0.7422E+01
     -2.397  0.9622E+00  0.7537E+01
     -2.277  0.9125E+00  0.7647E+01
     -2.157  0.1010E+01  0.7768E+01
     -2.037  0.1844E+01  0.7989E+01
     -1.917  0.1765E+01  0.8200E+01
     -1.798  0.9443E+00  0.8313E+01
     -1.678  0.8352E+00  0.8414E+01
     -1.558  0.8826E+00  0.8519E+01
     -1.438  0.8218E+00  0.8618E+01
     -1.318  0.8385E+00  0.8718E+01
     -1.198  0.1656E+01  0.8917E+01
     -1.079  0.6448E+01  0.9689E+01
     -0.959  0.7158E+01  0.1055E+02
     -0.839  0.4089E+01  0.1104E+02
     -0.719  0.2923E+01  0.1139E+02
     -0.599  0.3259E+01  0.1178E+02
     -0.479  0.2451E+01  0.1207E+02
     -0.360  0.2002E+01  0.1231E+02
     -0.240  0.1886E+01  0.1254E+02
     -0.120  0.1973E+01  0.1277E+02
     -0.000  0.1974E+01  0.1301E+02
      0.120  0.2236E+01  0.1328E+02
      0.240  0.2905E+01  0.1363E+02
      0.359  0.3859E+01  0.1409E+02
      0.479  0.4469E+01  0.1462E+02
      0.599  0.5339E+01  0.1526E+02
      0.719  0.1155E+00  0.1528E+02
      0.839  0.1987E+00  0.1530E+02
      0.958  0.1186E+00  0.1532E+02
      1.078  0.9507E-01  0.1533E+02
      1.198  0.2271E+00  0.1535E+02
      1.318  0.5970E-01  0.1536E+02
      1.438  0.7337E+00  0.1545E+02
      1.558  0.5160E+00  0.1551E+02
      1.677  0.3722E+00  0.1556E+02
      1.797  0.4892E+00  0.1561E+02
      1.917  0.1269E+01  0.1577E+02
      2.037  0.5230E+01  0.1639E+02
      2.157  0.6433E+01  0.1716E+02
      2.277  0.4846E+01  0.1775E+02
      2.396  0.4522E+01  0.1829E+02
      2.516  0.3090E+01  0.1866E+02
      2.636  0.3315E+01  0.1905E+02
      2.756  0.3448E+01  0.1947E+02
      2.876  0.5020E+01  0.2007E+02
      2.996  0.9802E+01  0.2124E+02
      3.115  0.4753E+01  0.2181E+02
      3.235  0.2895E+01  0.2216E+02
      3.355  0.2604E+01  0.2247E+02
      3.475  0.2287E+01  0.2275E+02
      3.595  0.2585E+01  0.2306E+02
      3.715  0.3717E+01  0.2350E+02
      3.834  0.3318E+01  0.2390E+02
      3.954  0.4267E+01  0.2441E+02
      4.074  0.6874E+01  0.2523E+02
      4.194  0.6388E+01  0.2600E+02
      4.314  0.7736E+01  0.2693E+02
      4.434  0.9177E+01  0.2803E+02
      4.553  0.1235E+02  0.2951E+02
      4.673  0.6183E+01  0.3025E+02
      4.793  0.2215E+01  0.3051E+02
      4.913  0.2358E+01  0.3080E+02
      5.033  0.9825E+00  0.3091E+02
      5.153  0.9750E+00  0.3103E+02
      5.272  0.9119E+00  0.3114E+02
      5.392  0.1063E+01  0.3127E+02
      5.512  0.1052E+01  0.3139E+02
      5.632  0.1429E+01  0.3156E+02
      5.752  0.2632E+01  0.3188E+02
      5.872  0.1006E+01  0.3200E+02
      5.991  0.5803E-03  0.3200E+02
      6.111  0.1092E-10  0.3200E+02
      6.231  0.5350E-09  0.3200E+02
      6.351  0.2530E-02  0.3200E+02
      6.471  0.1924E+01  0.3223E+02
      6.591  0.4984E+01  0.3283E+02
      6.710  0.2539E+01  0.3313E+02
      6.830  0.2037E+01  0.3338E+02
      6.950  0.1685E+01  0.3358E+02
      7.070  0.1547E+01  0.3376E+02
      7.190  0.1395E+01  0.3393E+02
      7.310  0.3347E+01  0.3433E+02
      7.429  0.3615E+01  0.3477E+02
      7.549  0.2865E+01  0.3511E+02
      7.669  0.2740E+01  0.3544E+02
      7.789  0.3070E+01  0.3580E+02
      7.909  0.5222E+01  0.3643E+02
      8.028  0.5452E+01  0.3708E+02
      8.148  0.4858E+01  0.3767E+02
      8.268  0.7907E+01  0.3861E+02
      8.388  0.8689E+01  0.3965E+02
      8.508  0.6001E+01  0.4037E+02
      8.628  0.5520E+01  0.4104E+02
      8.747  0.4402E+01  0.4156E+02
      8.867  0.3666E+01  0.4200E+02
      8.987  0.5418E+01  0.4265E+02
      9.107  0.1194E+02  0.4408E+02
      9.227  0.1071E+02  0.4537E+02
      9.347  0.7930E+01  0.4632E+02
      9.466  0.5865E+01  0.4702E+02
      9.586  0.3865E+01  0.4748E+02
      9.706  0.3840E+01  0.4794E+02
      9.826  0.3514E+01  0.4836E+02
      9.946  0.3135E+01  0.4874E+02
     10.066  0.3470E+01  0.4915E+02
     10.185  0.3236E+01  0.4954E+02
     10.305  0.4632E+01  0.5010E+02
     10.425  0.4872E+01  0.5068E+02
     10.545  0.5615E+01  0.5135E+02
     10.665  0.5191E+01  0.5198E+02
     10.785  0.4496E+01  0.5251E+02
     10.904  0.5098E+01  0.5313E+02
     11.024  0.4731E+01  0.5369E+02
     11.144  0.2235E+01  0.5396E+02
     11.264  0.3994E+01  0.5444E+02
     11.384  0.3865E+01  0.5490E+02
     11.504  0.3446E+01  0.5531E+02
     11.623  0.3780E+01  0.5577E+02
     11.743  0.4517E+01  0.5631E+02
     11.863  0.5908E+01  0.5702E+02
     11.983  0.5536E+01  0.5768E+02
     12.103  0.3229E+01  0.5807E+02
     12.223  0.3692E+01  0.5851E+02
     12.342  0.4612E+01  0.5906E+02
     12.462  0.4250E+01  0.5957E+02
     12.582  0.3257E+01  0.5996E+02
     12.702  0.3353E+01  0.6036E+02
     12.822  0.4132E+01  0.6086E+02
     12.942  0.4450E+01  0.6139E+02
     13.061  0.3312E+01  0.6179E+02
     13.181  0.4256E+01  0.6230E+02
     13.301  0.4241E+01  0.6281E+02
     13.421  0.5029E+01  0.6341E+02
     13.541  0.9519E+01  0.6455E+02
     13.661  0.5673E+01  0.6523E+02
     13.780  0.4961E+01  0.6583E+02
     13.900  0.4609E+01  0.6638E+02
     14.020  0.3030E+01  0.6674E+02
     14.140  0.2836E+01  0.6708E+02
     14.260  0.3114E+01  0.6745E+02
     14.380  0.2746E+01  0.6778E+02
     14.499  0.4021E+01  0.6826E+02
     14.619  0.3669E+01  0.6870E+02
     14.739  0.4432E+01  0.6924E+02
     14.859  0.4304E+01  0.6975E+02
     14.979  0.4138E+01  0.7025E+02
     15.098  0.4876E+01  0.7083E+02
     15.218  0.5639E+01  0.7151E+02
     15.338  0.7601E+01  0.7242E+02
     15.458  0.7695E+01  0.7334E+02
     15.578  0.4997E+01  0.7394E+02
     15.698  0.6641E+01  0.7473E+02
     15.817  0.8665E+01  0.7577E+02
     15.937  0.6637E+01  0.7657E+02
     16.057  0.4486E+01  0.7711E+02
     16.177  0.4316E+01  0.7762E+02
     16.297  0.8315E+01  0.7862E+02
     16.417  0.7255E+01  0.7949E+02
     16.536  0.3826E+01  0.7995E+02
     16.656  0.5961E+01  0.8066E+02
     16.776  0.7001E+01  0.8150E+02
     16.896  0.3506E+01  0.8192E+02
     17.016  0.4273E+01  0.8243E+02
     17.136  0.1122E+02  0.8378E+02
     17.255  0.8514E+01  0.8480E+02
     17.375  0.6979E+01  0.8563E+02
     17.495  0.6868E+01  0.8646E+02
     17.615  0.6090E+01  0.8719E+02
     17.735  0.5336E+01  0.8783E+02
     17.855  0.6151E+01  0.8856E+02
     17.974  0.6642E+01  0.8936E+02
     18.094  0.8189E+01  0.9034E+02
     18.214  0.7732E+01  0.9127E+02
     18.334  0.8265E+01  0.9226E+02
     18.454  0.7544E+01  0.9316E+02
     18.574  0.8441E+01  0.9417E+02
     18.693  0.8366E+01  0.9518E+02
     18.813  0.8688E+01  0.9622E+02
     18.933  0.8710E+01  0.9726E+02
     19.053  0.5750E+01  0.9795E+02
     19.173  0.6964E+01  0.9878E+02
     19.293  0.8187E+01  0.9976E+02
     19.412  0.5859E+01  0.1005E+03
     19.532  0.5083E+01  0.1011E+03
     19.652  0.4981E+01  0.1017E+03
     19.772  0.5136E+01  0.1023E+03
     19.892  0.6767E+01  0.1031E+03
     20.012  0.5205E+01  0.1037E+03
     20.131  0.2903E+01  0.1041E+03
     20.251  0.3628E+01  0.1045E+03
     20.371  0.4339E+01  0.1050E+03
     20.491  0.3538E+01  0.1054E+03
     20.611  0.3564E+01  0.1059E+03
     20.731  0.3335E+01  0.1063E+03
     20.850  0.3495E+01  0.1067E+03
     20.970  0.5024E+01  0.1073E+03
     21.090  0.4997E+01  0.1079E+03
     21.210  0.5042E+01  0.1085E+03
     21.330  0.3720E+01  0.1089E+03
     21.450  0.4466E+01  0.1095E+03
     21.569  0.3544E+01  0.1099E+03
     21.689  0.4110E+01  0.1104E+03
     21.809  0.4218E+01  0.1109E+03
     21.929  0.3814E+01  0.1114E+03
     22.049  0.4052E+01  0.1118E+03
     22.168  0.4200E+01  0.1123E+03
     22.288  0.4079E+01  0.1128E+03
     22.408  0.7748E+01  0.1138E+03
     22.528  0.5999E+01  0.1145E+03
     22.648  0.6692E+01  0.1153E+03
     22.768  0.7856E+01  0.1162E+03
     22.887  0.5084E+01  0.1168E+03
     23.007  0.3812E+01  0.1173E+03
     23.127  0.4002E+01  0.1178E+03
     23.247  0.5819E+01  0.1185E+03
     23.367  0.5993E+01  0.1192E+03
     23.487  0.5966E+01  0.1199E+03
     23.606  0.4595E+01  0.1205E+03
     23.726  0.6418E+01  0.1212E+03
     23.846  0.4832E+01  0.1218E+03
     23.966  0.3705E+01  0.1222E+03
     24.086  0.4301E+01  0.1228E+03
     24.206  0.4476E+01  0.1233E+03
     24.325  0.3871E+01  0.1238E+03
     24.445  0.5338E+01  0.1244E+03
     24.565  0.4838E+01  0.1250E+03
     24.685  0.4781E+01  0.1256E+03
     24.805  0.3430E+01  0.1260E+03
     24.925  0.2094E+01  0.1262E+03
     25.044  0.2833E+01  0.1266E+03
     25.164  0.3210E+01  0.1269E+03
     25.284  0.9908E+00  0.1271E+03
     25.404  0.7296E+00  0.1271E+03
     25.524  0.1034E+01  0.1273E+03
     25.644  0.1285E+01  0.1274E+03
     25.763  0.2064E+01  0.1277E+03
     25.883  0.7039E+00  0.1278E+03
     26.003  0.7021E+00  0.1278E+03
     26.123  0.4772E+00  0.1279E+03
     26.243  0.3780E+00  0.1279E+03
     26.363  0.2114E+00  0.1280E+03
     26.482  0.1749E+00  0.1280E+03
     26.602  0.8343E-01  0.1280E+03
     26.722  0.1438E-02  0.1280E+03
     26.842  0.1354E-08  0.1280E+03
     26.962  0.0000E+00  0.1280E+03
     27.082  0.0000E+00  0.1280E+03
     27.201  0.0000E+00  0.1280E+03
     27.321  0.0000E+00  0.1280E+03
     27.441  0.0000E+00  0.1280E+03
     27.561  0.0000E+00  0.1280E+03
     27.681  0.0000E+00  0.1280E+03
     27.801  0.0000E+00  0.1280E+03
     27.920  0.0000E+00  0.1280E+03
     28.040  0.0000E+00  0.1280E+03
     28.160  0.0000E+00  0.1280E+03
     28.16002022     -7.78914360  301      6.00634801      1.00000000
     -7.789  0.0000E+00  0.0000E+00  0.0000E+00  0.0000E+00  0.0000E+00  0.0000E+00  0.0000E+00  0.0000E+00  0.0000E+00
     -7.669  0.0000E+00  0.0000E+00  0.0000E+00  0.0000E+00  0.0000E+00  0.0000E+00  0.0000E+00  0.0000E+00  0.0000E+00
     -7.549  0.0000E+00  0.0000E+00  0.0000E+00  0.0000E+00  0.0000E+00  0.0000E+00  0.0000E+00  0.0000E+00  0.0000E+00
     -7.430  0.0000E+00  0.0000E+00  0.0000E+00  0.0000E+00  0.0000E+00  0.0000E+00  0.0000E+00  0.0000E+00  0.0000E+00
     -7.310  0.0000E+00  0.0000E+00  0.0000E+00  0.0000E+00  0.0000E+00  0.0000E+00  0.0000E+00  0.0000E+00  0.0000E+00
     -7.190  0.0000E+00  0.0000E+00  0.0000E+00  0.0000E+00  0.0000E+00  0.0000E+00  0.0000E+00  0.0000E+00  0.0000E+00
     -7.070  0.0000E+00  0.0000E+00  0.0000E+00  0.0000E+00  0.0000E+00  0.0000E+00  0.0000E+00  0.0000E+00  0.0000E+00
     -6.950  0.0000E+00  0.0000E+00  0.0000E+00  0.0000E+00  0.0000E+00  0.0000E+00  0.0000E+00  0.0000E+00  0.0000E+00
     -6.830  0.0000E+00  0.0000E+00  0.0000E+00  0.0000E+00  0.0000E+00  0.0000E+00  0.0000E+00  0.0000E+00  0.0000E+00
     -6.711  0.0000E+00  0.0000E+00  0.0000E+00  0.0000E+00  0.0000E+00  0.0000E+00  0.0000E+00  0.0000E+00  0.0000E+00
     -6.591  0.0000E+00  0.0000E+00  0.0000E+00  0.0000E+00  0.0000E+00  0.0000E+00  0.0000E+00  0.0000E+00  0.0000E+00
     -6.471  0.0000E+00  0.0000E+00  0.0000E+00  0.0000E+00  0.0000E+00  0.0000E+00  0.0000E+00  0.0000E+00  0.0000E+00
     -6.351  0.3596E-09  0.1336E-13  0.1336E-13  0.1336E-13  0.0000E+00  0.0000E+00  0.0000E+00  0.0000E+00  0.0000E+00
     -6.231  0.5055E-03  0.4166E-07  0.4166E-07  0.4166E-07  0.0000E+00  0.0000E+00  0.0000E+00  0.0000E+00  0.0000E+00
     -6.112  0.5402E-01  0.1687E-04  0.1687E-04  0.1687E-04  0.0000E+00  0.0000E+00  0.0000E+00  0.0000E+00  0.0000E+00
     -5.992  0.5378E-01  0.8055E-04  0.8055E-04  0.8055E-04  0.0000E+00  0.0000E+00  0.0000E+00  0.0000E+00  0.0000E+00
     -5.872  0.3260E-01  0.1216E-03  0.1216E-03  0.1216E-03  0.0000E+00  0.0000E+00  0.0000E+00  0.0000E+00  0.0000E+00
     -5.752  0.2603E-01  0.1507E-03  0.1507E-03  0.1507E-03  0.0000E+00  0.0000E+00  0.0000E+00  0.0000E+00  0.0000E+00
     -5.632  0.2241E-01  0.1748E-03  0.1748E-03  0.1748E-03  0.0000E+00  0.0000E+00  0.0000E+00  0.0000E+00  0.0000E+00
     -5.512  0.2023E-01  0.1973E-03  0.1973E-03  0.1973E-03  0.0000E+00  0.0000E+00  0.0000E+00  0.0000E+00  0.0000E+00
     -5.393  0.1855E-01  0.2161E-03  0.2161E-03  0.2161E-03  0.0000E+00  0.0000E+00  0.0000E+00  0.0000E+00  0.0000E+00
     -5.273  0.1696E-01  0.2292E-03  0.2292E-03  0.2292E-03  0.0000E+00  0.0000E+00  0.0000E+00  0.0000E+00  0.0000E+00
     -5.153  0.1616E-01  0.2477E-03  0.2477E-03  0.2477E-03  0.0000E+00  0.0000E+00  0.0000E+00  0.0000E+00  0.0000E+00
     -5.033  0.1554E-01  0.2656E-03  0.2656E-03  0.2656E-03  0.0000E+00  0.0000E+00  0.0000E+00  0.0000E+00  0.0000E+00
     -4.913  0.1478E-01  0.2773E-03  0.2773E-03  0.2773E-03  0.0000E+00  0.0000E+00  0.0000E+00  0.0000E+00  0.0000E+00
     -4.793  0.2422E-01  0.4912E-03  0.4912E-03  0.4912E-03  0.0000E+00  0.0000E+00  0.0000E+00  0.0000E+00  0.0000E+00
     -4.674  0.7802E-01  0.1656E-02  0.1656E-02  0.1656E-02  0.0000E+00  0.0000E+00  0.0000E+00  0.0000E+00  0.0000E+00
     -4.554  0.1700E+00  0.4012E-02  0.4012E-02  0.4012E-02  0.0000E+00  0.0000E+00  0.0000E+00  0.0000E+00  0.0000E+00
     -4.434  0.1626E+00  0.4048E-02  0.4048E-02  0.4048E-02  0.0000E+00  0.0000E+00  0.0000E+00  0.0000E+00  0.0000E+00
     -4.314  0.1286E+00  0.3381E-02  0.3381E-02  0.3381E-02  0.0000E+00  0.0000E+00  0.0000E+00  0.0000E+00  0.0000E+00
     -4.194  0.1190E+00  0.3259E-02  0.3259E-02  0.3259E-02  0.0000E+00  0.0000E+00  0.0000E+00  0.0000E+00  0.0000E+00
     -4.074  0.2867E+00  0.8484E-02  0.8484E-02  0.8484E-02  0.0000E+00  0.0000E+00  0.0000E+00  0.0000E+00  0.0000E+00
     -3.955  0.2689E+00  0.7957E-02  0.7957E-02  0.7957E-02  0.0000E+00  0.0000E+00  0.0000E+00  0.0000E+00  0.0000E+00
     -3.835  0.3290E+00  0.8643E-02  0.8643E-02  0.8643E-02  0.0000E+00  0.0000E+00  0.0000E+00  0.0000E+00  0.0000E+00
     -3.715  0.3388E+00  0.8768E-02  0.8768E-02  0.8768E-02  0.0000E+00  0.0000E+00  0.0000E+00  0.0000E+00  0.0000E+00
     -3.595  0.2111E+00  0.6471E-02  0.6471E-02  0.6471E-02  0.0000E+00  0.0000E+00  0.0000E+00  0.0000E+00  0.0000E+00
     -3.475  0.1975E+00  0.6504E-02  0.6504E-02  0.6504E-02  0.0000E+00  0.0000E+00  0.0000E+00  0.0000E+00  0.0000E+00
     -3.355  0.2037E+00  0.6967E-02  0.6967E-02  0.6967E-02  0.0000E+00  0.0000E+00  0.0000E+00  0.0000E+00  0.0000E+00
     -3.236  0.1406E+00  0.5205E-02  0.5205E-02  0.5205E-02  0.0000E+00  0.0000E+00  0.0000E+00  0.0000E+00  0.0000E+00
     -3.116  0.6566E-01  0.2924E-02  0.2924E-02  0.2924E-02  0.0000E+00  0.0000E+00  0.0000E+00  0.0000E+00  0.0000E+00
     -2.996  0.6113E-01  0.2941E-02  0.2941E-02  0.2941E-02  0.0000E+00  0.0000E+00  0.0000E+00  0.0000E+00  0.0000E+00
     -2.876  0.5914E-01  0.3090E-02  0.3090E-02  0.3090E-02  0.0000E+00  0.0000E+00  0.0000E+00  0.0000E+00  0.0000E+00
     -2.756  0.5566E-01  0.3125E-02  0.3125E-02  0.3125E-02  0.0000E+00  0.0000E+00  0.0000E+00  0.0000E+00  0.0000E+00
     -2.636  0.5016E-01  0.2980E-02  0.2980E-02  0.2980E-02  0.0000E+00  0.0000E+00  0.0000E+00  0.0000E+00  0.0000E+00
     -2.517  0.4908E-01  0.3072E-02  0.3072E-02  0.3072E-02  0.0000E+00  0.0000E+00  0.0000E+00  0.0000E+00  0.0000E+00
     -2.397  0.4785E-01  0.3129E-02  0.3129E-02  0.3129E-02  0.0000E+00  0.0000E+00  0.0000E+00  0.0000E+00  0.0000E+00
     -2.277  0.4527E-01  0.3064E-02  0.3064E-02  0.3064E-02  0.0000E+00  0.0000E+00  0.0000E+00  0.0000E+00  0.0000E+00
     -2.157  0.4990E-01  0.3512E-02  0.3512E-02  0.3512E-02  0.0000E+00  0.0000E+00  0.0000E+00  0.0000E+00  0.0000E+00
     -2.037  0.8997E-01  0.6780E-02  0.6780E-02  0.6780E-02  0.0000E+00  0.0000E+00  0.0000E+00  0.0000E+00  0.0000E+00
     -1.917  0.8527E-01  0.6695E-02  0.6695E-02  0.6695E-02  0.0000E+00  0.0000E+00  0.0000E+00  0.0000E+00  0.0000E+00
     -1.798  0.4535E-01  0.3724E-02  0.3724E-02  0.3724E-02  0.0000E+00  0.0000E+00  0.0000E+00  0.0000E+00  0.0000E+00
     -1.678  0.3997E-01  0.3390E-02  0.3390E-02  0.3390E-02  0.0000E+00  0.0000E+00  0.0000E+00  0.0000E+00  0.0000E+00
     -1.558  0.4212E-01  0.3681E-02  0.3681E-02  0.3681E-02  0.0000E+00  0.0000E+00  0.0000E+00  0.0000E+00  0.0000E+00
     -1.438  0.3911E-01  0.3527E-02  0.3527E-02  0.3527E-02  0.0000E+00  0.0000E+00  0.0000E+00  0.0000E+00  0.0000E+00
     -1.318  0.3980E-01  0.3691E-02  0.3691E-02  0.3691E-02  0.0000E+00  0.0000E+00  0.0000E+00  0.0000E+00  0.0000E+00
     -1.198  0.5989E-01  0.1021E-01  0.1021E-01  0.1021E-01  0.0000E+00  0.0000E+00  0.0000E+00  0.0000E+00  0.0000E+00
     -1.079  0.1830E+00  0.4735E-01  0.4735E-01  0.4735E-01  0.0000E+00  0.0000E+00  0.0000E+00  0.0000E+00  0.0000E+00
     -0.959  0.2367E+00  0.4838E-01  0.4838E-01  0.4838E-01  0.0000E+00  0.0000E+00  0.0000E+00  0.0000E+00  0.0000E+00
     -0.839  0.1401E+00  0.2720E-01  0.2720E-01  0.2720E-01  0.0000E+00  0.0000E+00  0.0000E+00  0.0000E+00  0.0000E+00
     -0.719  0.1023E+00  0.1940E-01  0.1940E-01  0.1940E-01  0.0000E+00  0.0000E+00  0.0000E+00  0.0000E+00  0.0000E+00
     -0.599  0.1194E+00  0.2119E-01  0.2119E-01  0.2119E-01  0.0000E+00  0.0000E+00  0.0000E+00  0.0000E+00  0.0000E+00
     -0.479  0.8607E-01  0.1662E-01  0.1662E-01  0.1662E-01  0.0000E+00  0.0000E+00  0.0000E+00  0.0000E+00  0.0000E+00
     -0.360  0.6943E-01  0.1388E-01  0.1388E-01  0.1388E-01  0.0000E+00  0.0000E+00  0.0000E+00  0.0000E+00  0.0000E+00
     -0.240  0.6635E-01  0.1312E-01  0.1312E-01  0.1312E-01  0.0000E+00  0.0000E+00  0.0000E+00  0.0000E+00  0.0000E+00
     -0.120  0.7041E-01  0.1376E-01  0.1376E-01  0.1376E-01  0.0000E+00  0.0000E+00  0.0000E+00  0.0000E+00  0.0000E+00
     -0.000  0.7220E-01  0.1371E-01  0.1371E-01  0.1371E-01  0.0000E+00  0.0000E+00  0.0000E+00  0.0000E+00  0.0000E+00
      0.120  0.8238E-01  0.1566E-01  0.1566E-01  0.1566E-01  0.0000E+00  0.0000E+00  0.0000E+00  0.0000E+00  0.0000E+00
      0.240  0.1101E+00  0.2023E-01  0.2023E-01  0.2023E-01  0.0000E+00  0.0000E+00  0.0000E+00  0.0000E+00  0.0000E+00
      0.359  0.1454E+00  0.2728E-01  0.2728E-01  0.2728E-01  0.0000E+00  0.0000E+00  0.0000E+00  0.0000E+00  0.0000E+00
      0.479  0.1444E+00  0.3526E-01  0.3526E-01  0.3526E-01  0.0000E+00  0.0000E+00  0.0000E+00  0.0000E+00  0.0000E+00
      0.599  0.1660E+00  0.4315E-01  0.4315E-01  0.4315E-01  0.0000E+00  0.0000E+00  0.0000E+00  0.0000E+00  0.0000E+00
      0.719  0.3941E-02  0.8973E-03  0.8973E-03  0.8973E-03  0.0000E+00  0.0000E+00  0.0000E+00  0.0000E+00  0.0000E+00
      0.839  0.6152E-02  0.1653E-02  0.1653E-02  0.1653E-02  0.0000E+00  0.0000E+00  0.0000E+00  0.0000E+00  0.0000E+00
      0.958  0.3695E-02  0.9911E-03  0.9911E-03  0.9911E-03  0.0000E+00  0.0000E+00  0.0000E+00  0.0000E+00  0.0000E+00
      1.078  0.3004E-02  0.7999E-03  0.7999E-03  0.7999E-03  0.0000E+00  0.0000E+00  0.0000E+00  0.0000E+00  0.0000E+00
      1.198  0.6786E-02  0.1976E-02  0.1976E-02  0.1976E-02  0.0000E+00  0.0000E+00  0.0000E+00  0.0000E+00  0.0000E+00
      1.318  0.1529E-02  0.5640E-03  0.5640E-03  0.5640E-03  0.0000E+00  0.0000E+00  0.0000E+00  0.0000E+00  0.0000E+00
      1.438  0.6525E-02  0.8554E-02  0.8554E-02  0.8554E-02  0.0000E+00  0.0000E+00  0.0000E+00  0.0000E+00  0.0000E+00
      1.558  0.3659E-02  0.6190E-02  0.6190E-02  0.6190E-02  0.0000E+00  0.0000E+00  0.0000E+00  0.0000E+00  0.0000E+00
      1.677  0.2825E-02  0.4488E-02  0.4488E-02  0.4488E-02  0.0000E+00  0.0000E+00  0.0000E+00  0.0000E+00  0.0000E+00
      1.797  0.6162E-02  0.5625E-02  0.5625E-02  0.5625E-02  0.0000E+00  0.0000E+00  0.0000E+00  0.0000E+00  0.0000E+00
      1.917  0.5430E-02  0.1620E-01  0.1620E-01  0.1620E-01  0.0000E+00  0.0000E+00  0.0000E+00  0.0000E+00  0.0000E+00
      2.037  0.2589E-01  0.6627E-01  0.6627E-01  0.6627E-01  0.0000E+00  0.0000E+00  0.0000E+00  0.0000E+00  0.0000E+00
      2.157  0.2992E-01  0.8263E-01  0.8263E-01  0.8263E-01  0.0000E+00  0.0000E+00  0.0000E+00  0.0000E+00  0.0000E+00
      2.277  0.2663E-01  0.6262E-01  0.6262E-01  0.6262E-01  0.0000E+00  0.0000E+00  0.0000E+00  0.0000E+00  0.0000E+00
      2.396  0.3223E-01  0.5816E-01  0.5816E-01  0.5816E-01  0.0000E+00  0.0000E+00  0.0000E+00  0.0000E+00  0.0000E+00
      2.516  0.1800E-01  0.4104E-01  0.4104E-01  0.4104E-01  0.0000E+00  0.0000E+00  0.0000E+00  0.0000E+00  0.0000E+00
      2.636  0.2190E-01  0.4443E-01  0.4443E-01  0.4443E-01  0.0000E+00  0.0000E+00  0.0000E+00  0.0000E+00  0.0000E+00
      2.756  0.1912E-01  0.4787E-01  0.4787E-01  0.4787E-01  0.0000E+00  0.0000E+00  0.0000E+00  0.0000E+00  0.0000E+00
      2.876  0.1702E-01  0.7458E-01  0.7458E-01  0.7458E-01  0.0000E+00  0.0000E+00  0.0000E+00  0.0000E+00  0.0000E+00
      2.996  0.2471E-01  0.1517E+00  0.1517E+00  0.1517E+00  0.0000E+00  0.0000E+00  0.0000E+00  0.0000E+00  0.0000E+00
      3.115  0.2041E-01  0.7060E-01  0.7060E-01  0.7060E-01  0.0000E+00  0.0000E+00  0.0000E+00  0.0000E+00  0.0000E+00
      3.235  0.1211E-01  0.4336E-01  0.4336E-01  0.4336E-01  0.0000E+00  0.0000E+00  0.0000E+00  0.0000E+00  0.0000E+00
      3.355  0.1212E-01  0.3887E-01  0.3887E-01  0.3887E-01  0.0000E+00  0.0000E+00  0.0000E+00  0.0000E+00  0.0000E+00
      3.475  0.1001E-01  0.3451E-01  0.3451E-01  0.3451E-01  0.0000E+00  0.0000E+00  0.0000E+00  0.0000E+00  0.0000E+00
      3.595  0.1154E-01  0.3924E-01  0.3924E-01  0.3924E-01  0.0000E+00  0.0000E+00  0.0000E+00  0.0000E+00  0.0000E+00
      3.715  0.1133E-01  0.5791E-01  0.5791E-01  0.5791E-01  0.0000E+00  0.0000E+00  0.0000E+00  0.0000E+00  0.0000E+00
      3.834  0.9584E-02  0.5242E-01  0.5242E-01  0.5242E-01  0.0000E+00  0.0000E+00  0.0000E+00  0.0000E+00  0.0000E+00
      3.954  0.1736E-01  0.6716E-01  0.6716E-01  0.6716E-01  0.0000E+00  0.0000E+00  0.0000E+00  0.0000E+00  0.0000E+00
      4.074  0.1478E-01  0.1131E+00  0.1131E+00  0.1131E+00  0.0000E+00  0.0000E+00  0.0000E+00  0.0000E+00  0.0000E+00
      4.194  0.1392E-01  0.1060E+00  0.1060E+00  0.1060E+00  0.0000E+00  0.0000E+00  0.0000E+00  0.0000E+00  0.0000E+00
      4.314  0.1351E-01  0.1305E+00  0.1305E+00  0.1305E+00  0.0000E+00  0.0000E+00  0.0000E+00  0.0000E+00  0.0000E+00
      4.434  0.8790E-02  0.1589E+00  0.1589E+00  0.1589E+00  0.0000E+00  0.0000E+00  0.0000E+00  0.0000E+00  0.0000E+00
      4.553  0.8462E-02  0.2180E+00  0.2180E+00  0.2180E+00  0.0000E+00  0.0000E+00  0.0000E+00  0.0000E+00  0.0000E+00
      4.673  0.3064E-02  0.1102E+00  0.1102E+00  0.1102E+00  0.0000E+00  0.0000E+00  0.0000E+00  0.0000E+00  0.0000E+00
      4.793  0.2063E-02  0.3900E-01  0.3900E-01  0.3900E-01  0.0000E+00  0.0000E+00  0.0000E+00  0.0000E+00  0.0000E+00
      4.913  0.2709E-02  0.4155E-01  0.4155E-01  0.4155E-01  0.0000E+00  0.0000E+00  0.0000E+00  0.0000E+00  0.0000E+00
      5.033  0.1535E-02  0.1699E-01  0.1699E-01  0.1699E-01  0.0000E+00  0.0000E+00  0.0000E+00  0.0000E+00  0.0000E+00
      5.153  0.2035E-02  0.1671E-01  0.1671E-01  0.1671E-01  0.0000E+00  0.0000E+00  0.0000E+00  0.0000E+00  0.0000E+00
      5.272  0.1333E-02  0.1582E-01  0.1582E-01  0.1582E-01  0.0000E+00  0.0000E+00  0.0000E+00  0.0000E+00  0.0000E+00
      5.392  0.1651E-02  0.1848E-01  0.1848E-01  0.1848E-01  0.0000E+00  0.0000E+00  0.0000E+00  0.0000E+00  0.0000E+00
      5.512  0.8554E-03  0.1857E-01  0.1857E-01  0.1857E-01  0.0000E+00  0.0000E+00  0.0000E+00  0.0000E+00  0.0000E+00
      5.632  0.1021E-02  0.2537E-01  0.2537E-01  0.2537E-01  0.0000E+00  0.0000E+00  0.0000E+00  0.0000E+00  0.0000E+00
      5.752  0.4359E-03  0.4723E-01  0.4723E-01  0.4723E-01  0.0000E+00  0.0000E+00  0.0000E+00  0.0000E+00  0.0000E+00
      5.872  0.3759E-04  0.1809E-01  0.1809E-01  0.1809E-01  0.0000E+00  0.0000E+00  0.0000E+00  0.0000E+00  0.0000E+00
      5.991  0.2800E-08  0.1044E-04  0.1044E-04  0.1044E-04  0.0000E+00  0.0000E+00  0.0000E+00  0.0000E+00  0.0000E+00
      6.111  0.1494E-16  0.1963E-12  0.1963E-12  0.1963E-12  0.0000E+00  0.0000E+00  0.0000E+00  0.0000E+00  0.0000E+00
      6.231  0.6952E-11  0.1738E-11  0.1738E-11  0.1738E-11  0.0000E+00  0.0000E+00  0.0000E+00  0.0000E+00  0.0000E+00
      6.351  0.3281E-04  0.8102E-05  0.8102E-05  0.8102E-05  0.0000E+00  0.0000E+00  0.0000E+00  0.0000E+00  0.0000E+00
      6.471  0.2484E-01  0.5984E-02  0.5984E-02  0.5984E-02  0.0000E+00  0.0000E+00  0.0000E+00  0.0000E+00  0.0000E+00
      6.591  0.6391E-01  0.1577E-01  0.1577E-01  0.1577E-01  0.0000E+00  0.0000E+00  0.0000E+00  0.0000E+00  0.0000E+00
      6.710  0.3189E-01  0.8710E-02  0.8710E-02  0.8710E-02  0.0000E+00  0.0000E+00  0.0000E+00  0.0000E+00  0.0000E+00
      6.830  0.2509E-01  0.7456E-02  0.7456E-02  0.7456E-02  0.0000E+00  0.0000E+00  0.0000E+00  0.0000E+00  0.0000E+00
      6.950  0.2041E-01  0.6545E-02  0.6545E-02  0.6545E-02  0.0000E+00  0.0000E+00  0.0000E+00  0.0000E+00  0.0000E+00
      7.070  0.1845E-01  0.6325E-02  0.6325E-02  0.6325E-02  0.0000E+00  0.0000E+00  0.0000E+00  0.0000E+00  0.0000E+00
      7.190  0.1686E-01  0.5954E-02  0.5954E-02  0.5954E-02  0.0000E+00  0.0000E+00  0.0000E+00  0.0000E+00  0.0000E+00
      7.310  0.1087E+00  0.9431E-02  0.9431E-02  0.9431E-02  0.0000E+00  0.0000E+00  0.0000E+00  0.0000E+00  0.0000E+00
      7.429  0.1195E+00  0.1093E-01  0.1093E-01  0.1093E-01  0.0000E+00  0.0000E+00  0.0000E+00  0.0000E+00  0.0000E+00
      7.549  0.8555E-01  0.1064E-01  0.1064E-01  0.1064E-01  0.0000E+00  0.0000E+00  0.0000E+00  0.0000E+00  0.0000E+00
      7.669  0.7428E-01  0.1157E-01  0.1157E-01  0.1157E-01  0.0000E+00  0.0000E+00  0.0000E+00  0.0000E+00  0.0000E+00
      7.789  0.7580E-01  0.1402E-01  0.1402E-01  0.1402E-01  0.0000E+00  0.0000E+00  0.0000E+00  0.0000E+00  0.0000E+00
      7.909  0.1128E+00  0.2586E-01  0.2586E-01  0.2586E-01  0.0000E+00  0.0000E+00  0.0000E+00  0.0000E+00  0.0000E+00
      8.028  0.1140E+00  0.3033E-01  0.3033E-01  0.3033E-01  0.0000E+00  0.0000E+00  0.0000E+00  0.0000E+00  0.0000E+00
      8.148  0.8967E-01  0.2804E-01  0.2804E-01  0.2804E-01  0.0000E+00  0.0000E+00  0.0000E+00  0.0000E+00  0.0000E+00
      8.268  0.1301E+00  0.4733E-01  0.4733E-01  0.4733E-01  0.0000E+00  0.0000E+00  0.0000E+00  0.0000E+00  0.0000E+00
      8.388  0.1016E+00  0.7203E-01  0.7203E-01  0.7203E-01  0.0000E+00  0.0000E+00  0.0000E+00  0.0000E+00  0.0000E+00
      8.508  0.8004E-01  0.4734E-01  0.4734E-01  0.4734E-01  0.0000E+00  0.0000E+00  0.0000E+00  0.0000E+00  0.0000E+00
      8.628  0.8006E-01  0.4284E-01  0.4284E-01  0.4284E-01  0.0000E+00  0.0000E+00  0.0000E+00  0.0000E+00  0.0000E+00
      8.747  0.7055E-01  0.3507E-01  0.3507E-01  0.3507E-01  0.0000E+00  0.0000E+00  0.0000E+00  0.0000E+00  0.0000E+00
      8.867  0.4139E-01  0.2990E-01  0.2990E-01  0.2990E-01  0.0000E+00  0.0000E+00  0.0000E+00  0.0000E+00  0.0000E+00
      8.987  0.2136E-01  0.4180E-01  0.4180E-01  0.4180E-01  0.0000E+00  0.0000E+00  0.0000E+00  0.0000E+00  0.0000E+00
      9.107  0.7542E-01  0.9183E-01  0.9183E-01  0.9183E-01  0.0000E+00  0.0000E+00  0.0000E+00  0.0000E+00  0.0000E+00
      9.227  0.6133E-01  0.8697E-01  0.8697E-01  0.8697E-01  0.0000E+00  0.0000E+00  0.0000E+00  0.0000E+00  0.0000E+00
      9.347  0.5476E-01  0.6847E-01  0.6847E-01  0.6847E-01  0.0000E+00  0.0000E+00  0.0000E+00  0.0000E+00  0.0000E+00
      9.466  0.4241E-01  0.5008E-01  0.5008E-01  0.5008E-01  0.0000E+00  0.0000E+00  0.0000E+00  0.0000E+00  0.0000E+00
      9.586  0.3348E-01  0.3302E-01  0.3302E-01  0.3302E-01  0.0000E+00  0.0000E+00  0.0000E+00  0.0000E+00  0.0000E+00
      9.706  0.2342E-01  0.3293E-01  0.3293E-01  0.3293E-01  0.0000E+00  0.0000E+00  0.0000E+00  0.0000E+00  0.0000E+00
      9.826  0.3284E-01  0.3121E-01  0.3121E-01  0.3121E-01  0.0000E+00  0.0000E+00  0.0000E+00  0.0000E+00  0.0000E+00
      9.946  0.2465E-01  0.2846E-01  0.2846E-01  0.2846E-01  0.0000E+00  0.0000E+00  0.0000E+00  0.0000E+00  0.0000E+00
     10.066  0.2429E-01  0.3158E-01  0.3158E-01  0.3158E-01  0.0000E+00  0.0000E+00  0.0000E+00  0.0000E+00  0.0000E+00
     10.185  0.2471E-01  0.3034E-01  0.3034E-01  0.3034E-01  0.0000E+00  0.0000E+00  0.0000E+00  0.0000E+00  0.0000E+00
     10.305  0.1984E-01  0.4544E-01  0.4544E-01  0.4544E-01  0.0000E+00  0.0000E+00  0.0000E+00  0.0000E+00  0.0000E+00
     10.425  0.3042E-01  0.4648E-01  0.4648E-01  0.4648E-01  0.0000E+00  0.0000E+00  0.0000E+00  0.0000E+00  0.0000E+00
     10.545  0.1843E-01  0.5804E-01  0.5804E-01  0.5804E-01  0.0000E+00  0.0000E+00  0.0000E+00  0.0000E+00  0.0000E+00
     10.665  0.2804E-01  0.5310E-01  0.5310E-01  0.5310E-01  0.0000E+00  0.0000E+00  0.0000E+00  0.0000E+00  0.0000E+00
     10.785  0.2436E-01  0.4275E-01  0.4275E-01  0.4275E-01  0.0000E+00  0.0000E+00  0.0000E+00  0.0000E+00  0.0000E+00
     10.904  0.3974E-01  0.4868E-01  0.4868E-01  0.4868E-01  0.0000E+00  0.0000E+00  0.0000E+00  0.0000E+00  0.0000E+00