   3   3   1   0
  0.5765919E+02  0.3160200E-09  0.3160200E-09  0.2000000E-08  0.2000000E-15
  1.000000000000000E-004
  CAR 
 HSE06-BAND                              
      9.87318554    -21.26269393 1000     -2.90518178      1.00000000
    -21.263  0.0000E+00  0.0000E+00
    -21.232  0.0000E+00  0.0000E+00
    -21.200  0.0000E+00  0.0000E+00
    -21.169  0.0000E+00  0.0000E+00
    -21.138  0.0000E+00  0.0000E+00
    -21.107  0.0000E+00  0.0000E+00
    -21.076  0.0000E+00  0.0000E+00
    -21.045  0.0000E+00  0.0000E+00
    -21.013  0.0000E+00  0.0000E+00
    -20.982  0.0000E+00  0.0000E+00
    -20.951  0.0000E+00  0.0000E+00
    -20.920  0.0000E+00  0.0000E+00
    -20.889  0.0000E+00  0.0000E+00
    -20.858  0.0000E+00  0.0000E+00
    -20.826  0.0000E+00  0.0000E+00
    -20.795  0.0000E+00  0.0000E+00
    -20.764  0.0000E+00  0.0000E+00
    -20.733  0.0000E+00  0.0000E+00
    -20.702  0.0000E+00  0.0000E+00
    -20.671  0.0000E+00  0.0000E+00
    -20.639  0.0000E+00  0.0000E+00
    -20.608  0.0000E+00  0.0000E+00
    -20.577  0.0000E+00  0.0000E+00
    -20.546  0.0000E+00  0.0000E+00
    -20.515  0.0000E+00  0.0000E+00
    -20.484  0.0000E+00  0.0000E+00
    -20.452  0.0000E+00  0.0000E+00
    -20.421  0.0000E+00  0.0000E+00
    -20.390  0.0000E+00  0.0000E+00
    -20.359  0.0000E+00  0.0000E+00
    -20.328  0.0000E+00  0.0000E+00
    -20.297  0.0000E+00  0.0000E+00
    -20.265  0.0000E+00  0.0000E+00
    -20.234  0.0000E+00  0.0000E+00
    -20.203  0.0000E+00  0.0000E+00
    -20.172  0.0000E+00  0.0000E+00
    -20.141  0.4398E-16  0.1371E-17
    -20.110  0.4890E-13  0.1526E-14
    -20.078  0.2576E-10  0.8045E-12
    -20.047  0.6335E-08  0.1983E-09
    -20.016  0.7295E-06  0.2293E-07
    -19.985  0.3950E-04  0.1254E-05
    -19.954  0.1011E-02  0.3276E-04
    -19.923  0.1230E-01  0.4160E-03
    -19.891  0.7149E-01  0.2644E-02
    -19.860  0.1997E+00  0.8869E-02
    -19.829  0.2690E+00  0.1725E-01
    -19.798  0.1750E+00  0.2271E-01
    -19.767  0.5567E-01  0.2444E-01
    -19.736  0.2470E-01  0.2521E-01
    -19.704  0.1534E+00  0.2999E-01
    -19.673  0.6793E+00  0.5116E-01
    -19.642  0.1454E+01  0.9647E-01
    -19.611  0.1501E+01  0.1433E+00
    -19.580  0.7480E+00  0.1666E+00
    -19.549  0.1794E+00  0.1722E+00
    -19.517  0.2063E-01  0.1728E+00
    -19.486  0.1130E-02  0.1728E+00
    -19.455  0.2935E-04  0.1728E+00
    -19.424  0.3328E-05  0.1728E+00
    -19.393  0.1718E-03  0.1728E+00
    -19.362  0.4697E-02  0.1730E+00
    -19.330  0.6098E-01  0.1749E+00
    -19.299  0.3783E+00  0.1867E+00
    -19.268  0.1127E+01  0.2218E+00
    -19.237  0.1619E+01  0.2723E+00
    -19.206  0.1123E+01  0.3073E+00
    -19.175  0.3844E+00  0.3193E+00
    -19.143  0.1600E+00  0.3242E+00
    -19.112  0.5258E+00  0.3406E+00
    -19.081  0.1309E+01  0.3814E+00
    -19.050  0.1587E+01  0.4309E+00
    -19.019  0.9280E+00  0.4598E+00
    -18.987  0.2615E+00  0.4680E+00
    -18.956  0.3535E-01  0.4691E+00
    -18.925  0.2280E-02  0.4691E+00
    -18.894  0.6975E-04  0.4691E+00
    -18.863  0.1007E-05  0.4691E+00
    -18.832  0.6838E-08  0.4691E+00
    -18.800  0.4651E-08  0.4691E+00
    -18.769  0.7940E-06  0.4691E+00
    -18.738  0.6388E-04  0.4691E+00
    -18.707  0.2422E-02  0.4692E+00
    -18.676  0.4353E-01  0.4706E+00
    -18.645  0.3728E+00  0.4822E+00
    -18.613  0.1530E+01  0.5299E+00
    -18.582  0.3027E+01  0.6242E+00
    -18.551  0.2916E+01  0.7151E+00
    -18.520  0.1460E+01  0.7606E+00
    -18.489  0.5588E+00  0.7780E+00
    -18.458  0.3737E+00  0.7897E+00
    -18.426  0.6555E+00  0.8101E+00
    -18.395  0.1423E+01  0.8545E+00
    -18.364  0.1984E+01  0.9163E+00
    -18.333  0.2067E+01  0.9807E+00
    -18.302  0.1870E+01  0.1039E+01
    -18.271  0.1180E+01  0.1076E+01
    -18.239  0.7413E+00  0.1099E+01
    -18.208  0.1205E+01  0.1136E+01
    -18.177  0.1710E+01  0.1190E+01
    -18.146  0.1585E+01  0.1239E+01
    -18.115  0.1625E+01  0.1290E+01
    -18.084  0.1660E+01  0.1342E+01
    -18.052  0.1001E+01  0.1373E+01
    -18.021  0.4211E+00  0.1386E+01
    -17.990  0.6740E+00  0.1407E+01
    -17.959  0.1624E+01  0.1457E+01
    -17.928  0.2827E+01  0.1546E+01
    -17.897  0.4650E+01  0.1690E+01
    -17.865  0.6193E+01  0.1883E+01
    -17.834  0.5002E+01  0.2039E+01
    -17.803  0.2380E+01  0.2114E+01
    -17.772  0.1558E+01  0.2162E+01
    -17.741  0.2679E+01  0.2246E+01
    -17.710  0.3147E+01  0.2344E+01
    -17.678  0.1845E+01  0.2401E+01
    -17.647  0.6006E+00  0.2420E+01
    -17.616  0.6076E+00  0.2439E+01
    -17.585  0.2047E+01  0.2503E+01
    -17.554  0.4662E+01  0.2648E+01
    -17.523  0.7037E+01  0.2867E+01
    -17.491  0.7725E+01  0.3108E+01
    -17.460  0.6361E+01  0.3306E+01
    -17.429  0.3766E+01  0.3424E+01
    -17.398  0.2137E+01  0.3490E+01
    -17.367  0.2284E+01  0.3561E+01
    -17.336  0.3213E+01  0.3662E+01
    -17.304  0.4067E+01  0.3788E+01
    -17.273  0.3417E+01  0.3895E+01
    -17.242  0.1709E+01  0.3948E+01
    -17.211  0.8071E+00  0.3973E+01
    -17.180  0.5361E+00  0.3990E+01
    -17.149  0.2534E+00  0.3998E+01
    -17.117  0.6078E-01  0.4000E+01
    -17.086  0.7027E-02  0.4000E+01
    -17.055  0.3874E-03  0.4000E+01
    -17.024  0.1012E-04  0.4000E+01
    -16.993  0.1246E-06  0.4000E+01
    -16.962  0.7194E-09  0.4000E+01
    -16.930  0.1942E-11  0.4000E+01
    -16.899  0.2463E-14  0.4000E+01
    -16.868  0.0000E+00  0.4000E+01
    -16.837  0.0000E+00  0.4000E+01
    -16.806  0.0000E+00  0.4000E+01
    -16.775  0.0000E+00  0.4000E+01
    -16.743  0.0000E+00  0.4000E+01
    -16.712  0.0000E+00  0.4000E+01
    -16.681  0.0000E+00  0.4000E+01
    -16.650  0.0000E+00  0.4000E+01
    -16.619  0.0000E+00  0.4000E+01
    -16.588  0.0000E+00  0.4000E+01
    -16.556  0.0000E+00  0.4000E+01
    -16.525  0.0000E+00  0.4000E+01
    -16.494  0.0000E+00  0.4000E+01
    -16.463  0.0000E+00  0.4000E+01
    -16.432  0.0000E+00  0.4000E+01
    -16.401  0.0000E+00  0.4000E+01
    -16.369  0.0000E+00  0.4000E+01
    -16.338  0.0000E+00  0.4000E+01
    -16.307  0.0000E+00  0.4000E+01
    -16.276  0.0000E+00  0.4000E+01
    -16.245  0.0000E+00  0.4000E+01
    -16.214  0.0000E+00  0.4000E+01
    -16.182  0.0000E+00  0.4000E+01
    -16.151  0.0000E+00  0.4000E+01
    -16.120  0.0000E+00  0.4000E+01
    -16.089  0.0000E+00  0.4000E+01
    -16.058  0.0000E+00  0.4000E+01
    -16.027  0.0000E+00  0.4000E+01
    -15.995  0.0000E+00  0.4000E+01
    -15.964  0.0000E+00  0.4000E+01
    -15.933  0.0000E+00  0.4000E+01
    -15.902  0.0000E+00  0.4000E+01
    -15.871  0.0000E+00  0.4000E+01
    -15.840  0.0000E+00  0.4000E+01
    -15.808  0.0000E+00  0.4000E+01
    -15.777  0.0000E+00  0.4000E+01
    -15.746  0.0000E+00  0.4000E+01
    -15.715  0.0000E+00  0.4000E+01
    -15.684  0.0000E+00  0.4000E+01
    -15.653  0.0000E+00  0.4000E+01
    -15.621  0.0000E+00  0.4000E+01
    -15.590  0.0000E+00  0.4000E+01
    -15.559  0.0000E+00  0.4000E+01
    -15.528  0.0000E+00  0.4000E+01
    -15.497  0.0000E+00  0.4000E+01
    -15.466  0.0000E+00  0.4000E+01
    -15.434  0.0000E+00  0.4000E+01
    -15.403  0.0000E+00  0.4000E+01
    -15.372  0.0000E+00  0.4000E+01
    -15.341  0.0000E+00  0.4000E+01
    -15.310  0.0000E+00  0.4000E+01
    -15.279  0.0000E+00  0.4000E+01
    -15.247  0.0000E+00  0.4000E+01
    -15.216  0.0000E+00  0.4000E+01
    -15.185  0.0000E+00  0.4000E+01
    -15.154  0.0000E+00  0.4000E+01
    -15.123  0.0000E+00  0.4000E+01
    -15.092  0.0000E+00  0.4000E+01
    -15.060  0.0000E+00  0.4000E+01
    -15.029  0.0000E+00  0.4000E+01
    -14.998  0.0000E+00  0.4000E+01
    -14.967  0.0000E+00  0.4000E+01
    -14.936  0.0000E+00  0.4000E+01
    -14.905  0.0000E+00  0.4000E+01
    -14.873  0.0000E+00  0.4000E+01
    -14.842  0.0000E+00  0.4000E+01
    -14.811  0.0000E+00  0.4000E+01
    -14.780  0.0000E+00  0.4000E+01
    -14.749  0.0000E+00  0.4000E+01
    -14.718  0.0000E+00  0.4000E+01
    -14.686  0.0000E+00  0.4000E+01
    -14.655  0.0000E+00  0.4000E+01
    -14.624  0.0000E+00  0.4000E+01
    -14.593  0.0000E+00  0.4000E+01
    -14.562  0.0000E+00  0.4000E+01
    -14.531  0.0000E+00  0.4000E+01
    -14.499  0.0000E+00  0.4000E+01
    -14.468  0.0000E+00  0.4000E+01
    -14.437  0.0000E+00  0.4000E+01
    -14.406  0.0000E+00  0.4000E+01
    -14.375  0.0000E+00  0.4000E+01
    -14.344  0.0000E+00  0.4000E+01
    -14.312  0.0000E+00  0.4000E+01
    -14.281  0.0000E+00  0.4000E+01
    -14.250  0.0000E+00  0.4000E+01
    -14.219  0.0000E+00  0.4000E+01
    -14.188  0.0000E+00  0.4000E+01
    -14.157  0.0000E+00  0.4000E+01
    -14.125  0.0000E+00  0.4000E+01
    -14.094  0.0000E+00  0.4000E+01
    -14.063  0.0000E+00  0.4000E+01
    -14.032  0.0000E+00  0.4000E+01
    -14.001  0.0000E+00  0.4000E+01
    -13.970  0.0000E+00  0.4000E+01
    -13.938  0.0000E+00  0.4000E+01
    -13.907  0.0000E+00  0.4000E+01
    -13.876  0.0000E+00  0.4000E+01
    -13.845  0.0000E+00  0.4000E+01
    -13.814  0.0000E+00  0.4000E+01
    -13.783  0.0000E+00  0.4000E+01
    -13.751  0.0000E+00  0.4000E+01
    -13.720  0.0000E+00  0.4000E+01
    -13.689  0.0000E+00  0.4000E+01
    -13.658  0.0000E+00  0.4000E+01
    -13.627  0.0000E+00  0.4000E+01
    -13.596  0.0000E+00  0.4000E+01
    -13.564  0.0000E+00  0.4000E+01
    -13.533  0.0000E+00  0.4000E+01
    -13.502  0.0000E+00  0.4000E+01
    -13.471  0.0000E+00  0.4000E+01
    -13.440  0.0000E+00  0.4000E+01
    -13.409  0.0000E+00  0.4000E+01
    -13.377  0.0000E+00  0.4000E+01
    -13.346  0.0000E+00  0.4000E+01
    -13.315  0.0000E+00  0.4000E+01
    -13.284  0.0000E+00  0.4000E+01
    -13.253  0.0000E+00  0.4000E+01
    -13.222  0.0000E+00  0.4000E+01
    -13.190  0.0000E+00  0.4000E+01
    -13.159  0.0000E+00  0.4000E+01
    -13.128  0.0000E+00  0.4000E+01
    -13.097  0.0000E+00  0.4000E+01
    -13.066  0.0000E+00  0.4000E+01
    -13.035  0.0000E+00  0.4000E+01
    -13.003  0.0000E+00  0.4000E+01
    -12.972  0.0000E+00  0.4000E+01
    -12.941  0.0000E+00  0.4000E+01
    -12.910  0.0000E+00  0.4000E+01
    -12.879  0.0000E+00  0.4000E+01
    -12.848  0.0000E+00  0.4000E+01
    -12.816  0.0000E+00  0.4000E+01
    -12.785  0.0000E+00  0.4000E+01
    -12.754  0.0000E+00  0.4000E+01
    -12.723  0.0000E+00  0.4000E+01
    -12.692  0.0000E+00  0.4000E+01
    -12.661  0.0000E+00  0.4000E+01
    -12.629  0.0000E+00  0.4000E+01
    -12.598  0.0000E+00  0.4000E+01
    -12.567  0.0000E+00  0.4000E+01
    -12.536  0.0000E+00  0.4000E+01
    -12.505  0.0000E+00  0.4000E+01
    -12.474  0.0000E+00  0.4000E+01
    -12.442  0.0000E+00  0.4000E+01
    -12.411  0.0000E+00  0.4000E+01
    -12.380  0.0000E+00  0.4000E+01
    -12.349  0.0000E+00  0.4000E+01
    -12.318  0.0000E+00  0.4000E+01
    -12.287  0.0000E+00  0.4000E+01
    -12.255  0.0000E+00  0.4000E+01
    -12.224  0.0000E+00  0.4000E+01
    -12.193  0.0000E+00  0.4000E+01
    -12.162  0.0000E+00  0.4000E+01
    -12.131  0.0000E+00  0.4000E+01
    -12.100  0.0000E+00  0.4000E+01
    -12.068  0.0000E+00  0.4000E+01
    -12.037  0.0000E+00  0.4000E+01
    -12.006  0.0000E+00  0.4000E+01
    -11.975  0.0000E+00  0.4000E+01
    -11.944  0.0000E+00  0.4000E+01
    -11.913  0.0000E+00  0.4000E+01
    -11.881  0.0000E+00  0.4000E+01
    -11.850  0.0000E+00  0.4000E+01
    -11.819  0.0000E+00  0.4000E+01
    -11.788  0.0000E+00  0.4000E+01
    -11.757  0.0000E+00  0.4000E+01
    -11.726  0.0000E+00  0.4000E+01
    -11.694  0.0000E+00  0.4000E+01
    -11.663  0.0000E+00  0.4000E+01
    -11.632  0.0000E+00  0.4000E+01
    -11.601  0.0000E+00  0.4000E+01
    -11.570  0.0000E+00  0.4000E+01
    -11.539  0.0000E+00  0.4000E+01
    -11.507  0.0000E+00  0.4000E+01
    -11.476  0.0000E+00  0.4000E+01
    -11.445  0.0000E+00  0.4000E+01
    -11.414  0.0000E+00  0.4000E+01
    -11.383  0.0000E+00  0.4000E+01
    -11.352  0.0000E+00  0.4000E+01
    -11.320  0.0000E+00  0.4000E+01
    -11.289  0.0000E+00  0.4000E+01
    -11.258  0.0000E+00  0.4000E+01
    -11.227  0.0000E+00  0.4000E+01
    -11.196  0.0000E+00  0.4000E+01
    -11.165  0.0000E+00  0.4000E+01
    -11.133  0.0000E+00  0.4000E+01
    -11.102  0.0000E+00  0.4000E+01
    -11.071  0.0000E+00  0.4000E+01
    -11.040  0.0000E+00  0.4000E+01
    -11.009  0.0000E+00  0.4000E+01
    -10.978  0.0000E+00  0.4000E+01
    -10.946  0.0000E+00  0.4000E+01
    -10.915  0.0000E+00  0.4000E+01
    -10.884  0.0000E+00  0.4000E+01
    -10.853  0.0000E+00  0.4000E+01
    -10.822  0.0000E+00  0.4000E+01
    -10.791  0.0000E+00  0.4000E+01
    -10.759  0.0000E+00  0.4000E+01
    -10.728  0.0000E+00  0.4000E+01
    -10.697  0.0000E+00  0.4000E+01
    -10.666  0.0000E+00  0.4000E+01
    -10.635  0.0000E+00  0.4000E+01
    -10.604  0.0000E+00  0.4000E+01
    -10.572  0.0000E+00  0.4000E+01
    -10.541  0.0000E+00  0.4000E+01
    -10.510  0.0000E+00  0.4000E+01
    -10.479  0.0000E+00  0.4000E+01
    -10.448  0.0000E+00  0.4000E+01
    -10.417  0.0000E+00  0.4000E+01
    -10.385  0.0000E+00  0.4000E+01
    -10.354  0.4380E-13  0.4000E+01
    -10.323  0.2865E-10  0.4000E+01
    -10.292  0.8727E-08  0.4000E+01
    -10.261  0.1243E-05  0.4000E+01
    -10.230  0.8321E-04  0.4000E+01
    -10.198  0.2628E-02  0.4000E+01
    -10.167  0.3938E-01  0.4001E+01
    -10.136  0.2818E+00  0.4010E+01
    -10.105  0.9701E+00  0.4040E+01
    -10.074  0.1636E+01  0.4091E+01
    -10.043  0.1500E+01  0.4138E+01
    -10.011  0.1268E+01  0.4178E+01
     -9.980  0.1651E+01  0.4229E+01
     -9.949  0.1707E+01  0.4282E+01
     -9.918  0.9463E+00  0.4312E+01
     -9.887  0.2611E+00  0.4320E+01
     -9.856  0.5122E-01  0.4321E+01
     -9.824  0.1556E+00  0.4326E+01
     -9.793  0.6849E+00  0.4348E+01
     -9.762  0.1521E+01  0.4395E+01
     -9.731  0.1999E+01  0.4457E+01
     -9.700  0.2567E+01  0.4537E+01
     -9.669  0.3438E+01  0.4644E+01
     -9.637  0.3023E+01  0.4739E+01
     -9.606  0.1622E+01  0.4789E+01
     -9.575  0.6290E+00  0.4809E+01
     -9.544  0.2612E+00  0.4817E+01
     -9.513  0.5339E+00  0.4834E+01
     -9.482  0.1469E+01  0.4879E+01
     -9.450  0.2640E+01  0.4962E+01
     -9.419  0.3798E+01  0.5080E+01
     -9.388  0.4840E+01  0.5231E+01
     -9.357  0.6032E+01  0.5419E+01
     -9.326  0.6838E+01  0.5632E+01
     -9.295  0.5249E+01  0.5796E+01
     -9.263  0.2986E+01  0.5889E+01
     -9.232  0.2071E+01  0.5953E+01
     -9.201  0.1895E+01  0.6012E+01
     -9.170  0.3038E+01  0.6107E+01
     -9.139  0.4741E+01  0.6255E+01
     -9.108  0.4024E+01  0.6380E+01
     -9.076  0.1684E+01  0.6433E+01
     -9.045  0.3458E+00  0.6443E+01
     -9.014  0.6997E-01  0.6446E+01
     -8.983  0.2665E+00  0.6454E+01
     -8.952  0.9353E+00  0.6483E+01
     -8.921  0.1599E+01  0.6533E+01
     -8.889  0.1382E+01  0.6576E+01
     -8.858  0.8088E+00  0.6601E+01
     -8.827  0.6425E+00  0.6621E+01
     -8.796  0.6879E+00  0.6643E+01
     -8.765  0.1322E+01  0.6684E+01
     -8.734  0.2750E+01  0.6770E+01
     -8.702  0.3138E+01  0.6867E+01
     -8.671  0.1779E+01  0.6923E+01
     -8.640  0.7209E+00  0.6945E+01
     -8.609  0.9703E+00  0.6975E+01
     -8.578  0.1584E+01  0.7025E+01
     -8.547  0.1325E+01  0.7066E+01
     -8.515  0.5357E+00  0.7083E+01
     -8.484  0.1042E+00  0.7086E+01
     -8.453  0.9690E-02  0.7086E+01
     -8.422  0.4292E-03  0.7086E+01
     -8.391  0.3426E-04  0.7086E+01
     -8.360  0.1002E-02  0.7086E+01
     -8.328  0.1879E-01  0.7087E+01
     -8.297  0.1680E+00  0.7092E+01
     -8.266  0.7213E+00  0.7115E+01
     -8.235  0.1517E+01  0.7162E+01
     -8.204  0.1748E+01  0.7216E+01
     -8.173  0.1801E+01  0.7273E+01
     -8.141  0.2537E+01  0.7352E+01
     -8.110  0.3073E+01  0.7447E+01
     -8.079  0.2564E+01  0.7527E+01
     -8.048  0.1809E+01  0.7584E+01
     -8.017  0.2146E+01  0.7651E+01
     -7.986  0.3594E+01  0.7763E+01
     -7.954  0.4931E+01  0.7916E+01
     -7.923  0.5543E+01  0.8089E+01
     -7.892  0.5904E+01  0.8273E+01
     -7.861  0.5550E+01  0.8446E+01
     -7.830  0.3702E+01  0.8561E+01
     -7.799  0.1533E+01  0.8609E+01
     -7.767  0.9071E+00  0.8638E+01
     -7.736  0.2465E+01  0.8714E+01
     -7.705  0.5035E+01  0.8871E+01
     -7.674  0.5630E+01  0.9047E+01
     -7.643  0.3717E+01  0.9163E+01
     -7.612  0.1745E+01  0.9217E+01
     -7.580  0.8320E+00  0.9243E+01
     -7.549  0.3910E+00  0.9255E+01
     -7.518  0.1251E+00  0.9259E+01
     -7.487  0.1196E+00  0.9263E+01
     -7.456  0.5305E+00  0.9279E+01
     -7.425  0.1318E+01  0.9320E+01
     -7.393  0.1583E+01  0.9370E+01
     -7.362  0.9253E+00  0.9399E+01
     -7.331  0.3425E+00  0.9409E+01
     -7.300  0.5261E+00  0.9426E+01
     -7.269  0.1440E+01  0.9470E+01
     -7.238  0.2372E+01  0.9544E+01
     -7.206  0.2507E+01  0.9623E+01
     -7.175  0.1738E+01  0.9677E+01
     -7.144  0.7372E+00  0.9700E+01
     -7.113  0.4771E+00  0.9715E+01
     -7.082  0.1605E+01  0.9765E+01
     -7.051  0.4183E+01  0.9895E+01
     -7.019  0.6538E+01  0.1010E+02
     -6.988  0.6304E+01  0.1030E+02
     -6.957  0.3552E+01  0.1041E+02
     -6.926  0.1158E+01  0.1044E+02
     -6.895  0.8218E+00  0.1047E+02
     -6.864  0.2742E+01  0.1055E+02
     -6.832  0.6674E+01  0.1076E+02
     -6.801  0.9613E+01  0.1106E+02
     -6.770  0.8190E+01  0.1132E+02
     -6.739  0.4501E+01  0.1146E+02
     -6.708  0.1806E+01  0.1151E+02
     -6.677  0.5007E+00  0.1153E+02
     -6.645  0.7983E-01  0.1153E+02
     -6.614  0.7774E-02  0.1153E+02
     -6.583  0.2322E-01  0.1153E+02
     -6.552  0.1936E+00  0.1154E+02
     -6.521  0.7822E+00  0.1156E+02
     -6.490  0.1521E+01  0.1161E+02
     -6.458  0.1428E+01  0.1165E+02
     -6.427  0.6470E+00  0.1167E+02
     -6.396  0.1423E+00  0.1168E+02
     -6.365  0.3788E-01  0.1168E+02
     -6.334  0.2055E+00  0.1169E+02
     -6.303  0.9006E+00  0.1171E+02
     -6.271  0.2042E+01  0.1178E+02
     -6.240  0.2666E+01  0.1186E+02
     -6.209  0.2482E+01  0.1194E+02
     -6.178  0.1772E+01  0.1199E+02
     -6.147  0.8159E+00  0.1202E+02
     -6.116  0.4017E+00  0.1203E+02
     -6.084  0.9783E+00  0.1206E+02
     -6.053  0.2210E+01  0.1213E+02
     -6.022  0.2944E+01  0.1222E+02
     -5.991  0.2591E+01  0.1230E+02
     -5.960  0.1529E+01  0.1235E+02
     -5.929  0.6003E+00  0.1237E+02
     -5.897  0.5316E+00  0.1239E+02
     -5.866  0.1218E+01  0.1242E+02
     -5.835  0.1618E+01  0.1247E+02
     -5.804  0.1119E+01  0.1251E+02
     -5.773  0.1015E+01  0.1254E+02
     -5.742  0.3017E+01  0.1264E+02
     -5.710  0.6543E+01  0.1284E+02
     -5.679  0.7482E+01  0.1307E+02
     -5.648  0.4473E+01  0.1321E+02
     -5.617  0.1499E+01  0.1326E+02
     -5.586  0.4709E+00  0.1327E+02
     -5.555  0.2594E+00  0.1328E+02
     -5.523  0.3715E+00  0.1329E+02
     -5.492  0.1847E+01  0.1335E+02
     -5.461  0.6252E+01  0.1355E+02
     -5.430  0.1147E+02  0.1390E+02
     -5.399  0.1163E+02  0.1427E+02
     -5.368  0.7047E+01  0.1448E+02
     -5.336  0.3018E+01  0.1458E+02
     -5.305  0.9951E+00  0.1461E+02
     -5.274  0.2150E+00  0.1462E+02
     -5.243  0.6464E-01  0.1462E+02
     -5.212  0.3536E+00  0.1463E+02
     -5.180  0.1479E+01  0.1468E+02
     -5.149  0.2991E+01  0.1477E+02
     -5.118  0.2919E+01  0.1486E+02
     -5.087  0.1375E+01  0.1490E+02
     -5.056  0.3120E+00  0.1491E+02
     -5.025  0.3478E-01  0.1491E+02
     -4.993  0.1885E-01  0.1491E+02
     -4.962  0.1607E+00  0.1492E+02
     -4.931  0.7592E+00  0.1494E+02
     -4.900  0.1992E+01  0.1500E+02
     -4.869  0.3450E+01  0.1511E+02
     -4.838  0.4441E+01  0.1525E+02
     -4.806  0.4245E+01  0.1538E+02
     -4.775  0.3131E+01  0.1548E+02
     -4.744  0.1714E+01  0.1553E+02
     -4.713  0.5844E+00  0.1555E+02
     -4.682  0.2005E+00  0.1556E+02
     -4.651  0.5255E+00  0.1557E+02
     -4.619  0.1308E+01  0.1562E+02
     -4.588  0.1638E+01  0.1567E+02
     -4.557  0.1285E+01  0.1571E+02
     -4.526  0.1545E+01  0.1576E+02
     -4.495  0.2553E+01  0.1583E+02
     -4.464  0.2847E+01  0.1592E+02
     -4.432  0.2115E+01  0.1599E+02
     -4.401  0.1689E+01  0.1604E+02
     -4.370  0.1733E+01  0.1610E+02
     -4.339  0.1247E+01  0.1613E+02
     -4.308  0.8738E+00  0.1616E+02
     -4.277  0.1871E+01  0.1622E+02
     -4.245  0.3626E+01  0.1633E+02
     -4.214  0.4037E+01  0.1646E+02
     -4.183  0.2760E+01  0.1655E+02
     -4.152  0.1194E+01  0.1658E+02
     -4.121  0.3831E+00  0.1659E+02
     -4.090  0.5786E+00  0.1661E+02
     -4.058  0.1861E+01  0.1667E+02
     -4.027  0.4022E+01  0.1680E+02
     -3.996  0.5592E+01  0.1697E+02
     -3.965  0.4537E+01  0.1711E+02
     -3.934  0.2043E+01  0.1718E+02
     -3.903  0.9812E+00  0.1721E+02
     -3.871  0.1404E+01  0.1725E+02
     -3.840  0.1565E+01  0.1730E+02
     -3.809  0.8711E+00  0.1733E+02
     -3.778  0.3019E+00  0.1733E+02
     -3.747  0.4485E+00  0.1735E+02
     -3.716  0.1187E+01  0.1739E+02
     -3.684  0.1617E+01  0.1744E+02
     -3.653  0.1083E+01  0.1747E+02
     -3.622  0.5120E+00  0.1749E+02
     -3.591  0.8431E+00  0.1751E+02
     -3.560  0.1992E+01  0.1757E+02
     -3.529  0.3292E+01  0.1768E+02
     -3.497  0.3920E+01  0.1780E+02
     -3.466  0.3000E+01  0.1789E+02
     -3.435  0.1365E+01  0.1794E+02
     -3.404  0.4028E+00  0.1795E+02
     -3.373  0.8535E-01  0.1795E+02
     -3.342  0.1169E-01  0.1795E+02
     -3.310  0.8695E-03  0.1795E+02
     -3.279  0.5989E-04  0.1795E+02
     -3.248  0.8810E-03  0.1795E+02
     -3.217  0.1318E-01  0.1795E+02
     -3.186  0.9412E-01  0.1795E+02
     -3.155  0.3226E+00  0.1796E+02
     -3.123  0.5327E+00  0.1798E+02
     -3.092  0.4247E+00  0.1799E+02
     -3.061  0.1633E+00  0.1800E+02
     -3.030  0.3017E-01  0.1800E+02
     -2.999  0.2667E-02  0.1800E+02
     -2.968  0.1121E-03  0.1800E+02
     -2.936  0.2228E-05  0.1800E+02
     -2.905  0.2084E-07  0.1800E+02
     -2.874  0.9127E-10  0.1800E+02
     -2.843  0.1866E-12  0.1800E+02
     -2.812  0.1759E-15  0.1800E+02
     -2.781  0.0000E+00  0.1800E+02
     -2.749  0.0000E+00  0.1800E+02
     -2.718  0.0000E+00  0.1800E+02
     -2.687  0.0000E+00  0.1800E+02
     -2.656  0.0000E+00  0.1800E+02
     -2.625  0.0000E+00  0.1800E+02
     -2.594  0.0000E+00  0.1800E+02
     -2.562  0.0000E+00  0.1800E+02
     -2.531  0.0000E+00  0.1800E+02
     -2.500  0.0000E+00  0.1800E+02
     -2.469  0.0000E+00  0.1800E+02
     -2.438  0.0000E+00  0.1800E+02
     -2.407  0.0000E+00  0.1800E+02
     -2.375  0.0000E+00  0.1800E+02
     -2.344  0.0000E+00  0.1800E+02
     -2.313  0.0000E+00  0.1800E+02
     -2.282  0.0000E+00  0.1800E+02
     -2.251  0.0000E+00  0.1800E+02
     -2.220  0.0000E+00  0.1800E+02
     -2.188  0.0000E+00  0.1800E+02
     -2.157  0.0000E+00  0.1800E+02
     -2.126  0.0000E+00  0.1800E+02
     -2.095  0.0000E+00  0.1800E+02
     -2.064  0.0000E+00  0.1800E+02
     -2.033  0.0000E+00  0.1800E+02
     -2.001  0.0000E+00  0.1800E+02
     -1.970  0.0000E+00  0.1800E+02
     -1.939  0.0000E+00  0.1800E+02
     -1.908  0.0000E+00  0.1800E+02
     -1.877  0.0000E+00  0.1800E+02
     -1.846  0.0000E+00  0.1800E+02
     -1.814  0.0000E+00  0.1800E+02
     -1.783  0.0000E+00  0.1800E+02
     -1.752  0.0000E+00  0.1800E+02
     -1.721  0.0000E+00  0.1800E+02
     -1.690  0.0000E+00  0.1800E+02
     -1.659  0.0000E+00  0.1800E+02
     -1.627  0.0000E+00  0.1800E+02
     -1.596  0.0000E+00  0.1800E+02
     -1.565  0.0000E+00  0.1800E+02
     -1.534  0.0000E+00  0.1800E+02
     -1.503  0.0000E+00  0.1800E+02
     -1.472  0.0000E+00  0.1800E+02
     -1.440  0.0000E+00  0.1800E+02
     -1.409  0.0000E+00  0.1800E+02
     -1.378  0.0000E+00  0.1800E+02
     -1.347  0.0000E+00  0.1800E+02
     -1.316  0.0000E+00  0.1800E+02
     -1.285  0.0000E+00  0.1800E+02
     -1.253  0.0000E+00  0.1800E+02
     -1.222  0.0000E+00  0.1800E+02
     -1.191  0.0000E+00  0.1800E+02
     -1.160  0.0000E+00  0.1800E+02
     -1.129  0.0000E+00  0.1800E+02
     -1.098  0.0000E+00  0.1800E+02
     -1.066  0.0000E+00  0.1800E+02
     -1.035  0.0000E+00  0.1800E+02
     -1.004  0.0000E+00  0.1800E+02
     -0.973  0.0000E+00  0.1800E+02
     -0.942  0.0000E+00  0.1800E+02
     -0.911  0.0000E+00  0.1800E+02
     -0.879  0.8795E-15  0.1800E+02
     -0.848  0.7750E-12  0.1800E+02
     -0.817  0.3206E-09  0.1800E+02
     -0.786  0.6195E-07  0.1800E+02
     -0.755  0.5613E-05  0.1800E+02
     -0.724  0.2395E-03  0.1800E+02
     -0.692  0.4838E-02  0.1800E+02
     -0.661  0.4654E-01  0.1800E+02
     -0.630  0.2144E+00  0.1801E+02
     -0.599  0.4750E+00  0.1802E+02
     -0.568  0.5080E+00  0.1804E+02
     -0.537  0.2621E+00  0.1805E+02
     -0.505  0.6513E-01  0.1805E+02
     -0.474  0.7756E-02  0.1805E+02
     -0.443  0.4584E-03  0.1805E+02
     -0.412  0.8740E-03  0.1805E+02
     -0.381  0.1946E-01  0.1805E+02
     -0.350  0.2090E+00  0.1806E+02
     -0.318  0.1076E+01  0.1809E+02
     -0.287  0.2698E+01  0.1817E+02
     -0.256  0.3554E+01  0.1828E+02
     -0.225  0.3457E+01  0.1839E+02
     -0.194  0.3972E+01  0.1852E+02
     -0.163  0.4117E+01  0.1864E+02
     -0.131  0.2978E+01  0.1874E+02
     -0.100  0.1825E+01  0.1879E+02
     -0.069  0.2260E+01  0.1886E+02
     -0.038  0.4344E+01  0.1900E+02
     -0.007  0.5770E+01  0.1918E+02
      0.024  0.4657E+01  0.1933E+02
      0.056  0.3206E+01  0.1943E+02
      0.087  0.3977E+01  0.1955E+02
      0.118  0.5297E+01  0.1971E+02
      0.149  0.4787E+01  0.1986E+02
      0.180  0.2645E+01  0.1995E+02
      0.211  0.8109E+00  0.1997E+02
      0.243  0.1823E+00  0.1998E+02
      0.274  0.4873E+00  0.1999E+02
      0.305  0.2012E+01  0.2005E+02
      0.336  0.4245E+01  0.2019E+02
      0.367  0.4572E+01  0.2033E+02
      0.398  0.2950E+01  0.2042E+02
      0.430  0.2322E+01  0.2049E+02
      0.461  0.2913E+01  0.2058E+02
      0.492  0.3538E+01  0.2069E+02
      0.523  0.4518E+01  0.2084E+02
      0.554  0.5691E+01  0.2101E+02
      0.585  0.5928E+01  0.2120E+02
      0.617  0.5493E+01  0.2137E+02
      0.648  0.4309E+01  0.2150E+02
      0.679  0.2352E+01  0.2158E+02
      0.710  0.9021E+00  0.2160E+02
      0.741  0.7969E+00  0.2163E+02
      0.772  0.1724E+01  0.2168E+02
      0.804  0.2836E+01  0.2177E+02
      0.835  0.3936E+01  0.2189E+02
      0.866  0.5026E+01  0.2205E+02
      0.897  0.5251E+01  0.2221E+02
      0.928  0.3812E+01  0.2233E+02
      0.959  0.1772E+01  0.2239E+02
      0.991  0.1045E+01  0.2242E+02
      1.022  0.1601E+01  0.2247E+02
      1.053  0.2243E+01  0.2254E+02
      1.084  0.2368E+01  0.2261E+02
      1.115  0.2663E+01  0.2270E+02
      1.146  0.3702E+01  0.2281E+02
      1.178  0.4541E+01  0.2295E+02
      1.209  0.5202E+01  0.2312E+02
      1.240  0.4896E+01  0.2327E+02
      1.271  0.2730E+01  0.2335E+02
      1.302  0.7818E+00  0.2338E+02
      1.333  0.1105E+00  0.2338E+02
      1.365  0.7585E-02  0.2338E+02
      1.396  0.3648E-03  0.2338E+02
      1.427  0.3836E-02  0.2338E+02
      1.458  0.6283E-01  0.2338E+02
      1.489  0.5123E+00  0.2340E+02
      1.520  0.2104E+01  0.2347E+02
      1.552  0.4409E+01  0.2360E+02
      1.583  0.4804E+01  0.2375E+02
      1.614  0.2813E+01  0.2384E+02
      1.645  0.9315E+00  0.2387E+02
      1.676  0.1854E+00  0.2388E+02
      1.707  0.6868E-01  0.2388E+02
      1.739  0.3263E+00  0.2389E+02
      1.770  0.1089E+01  0.2392E+02
      1.801  0.1953E+01  0.2398E+02
      1.832  0.2281E+01  0.2405E+02
      1.863  0.2075E+01  0.2412E+02
      1.894  0.1434E+01  0.2416E+02
      1.926  0.1166E+01  0.2420E+02
      1.957  0.1576E+01  0.2425E+02
      1.988  0.1548E+01  0.2430E+02
      2.019  0.1158E+01  0.2433E+02
      2.050  0.1410E+01  0.2438E+02
      2.081  0.1620E+01  0.2443E+02
      2.113  0.9890E+00  0.2446E+02
      2.144  0.2935E+00  0.2447E+02
      2.175  0.4192E-01  0.2447E+02
      2.206  0.5691E-02  0.2447E+02
      2.237  0.4207E-01  0.2447E+02
      2.268  0.2990E+00  0.2448E+02
      2.300  0.1071E+01  0.2451E+02
      2.331  0.2191E+01  0.2458E+02
      2.362  0.3268E+01  0.2468E+02
      2.393  0.3962E+01  0.2481E+02
      2.424  0.3581E+01  0.2492E+02
      2.455  0.2704E+01  0.2500E+02
      2.487  0.2182E+01  0.2507E+02
      2.518  0.2509E+01  0.2515E+02
      2.549  0.3553E+01  0.2526E+02
      2.580  0.3983E+01  0.2538E+02
      2.611  0.2732E+01  0.2547E+02
      2.642  0.9961E+00  0.2550E+02
      2.674  0.1818E+00  0.2551E+02
      2.705  0.3861E-01  0.2551E+02
      2.736  0.1931E+00  0.2551E+02
      2.767  0.7795E+00  0.2554E+02
      2.798  0.1520E+01  0.2558E+02
      2.829  0.1430E+01  0.2563E+02
      2.861  0.6495E+00  0.2565E+02
      2.892  0.1427E+00  0.2565E+02
      2.923  0.3312E-01  0.2565E+02
      2.954  0.2003E+00  0.2566E+02
      2.985  0.1043E+01  0.2569E+02
      3.016  0.2622E+01  0.2578E+02
      3.048  0.3201E+01  0.2588E+02
      3.079  0.1975E+01  0.2594E+02
      3.110  0.7697E+00  0.2596E+02
      3.141  0.3164E+00  0.2597E+02
      3.172  0.1225E+00  0.2597E+02
      3.203  0.2797E-01  0.2598E+02
      3.235  0.1172E-01  0.2598E+02
      3.266  0.6706E-01  0.2598E+02
      3.297  0.2812E+00  0.2599E+02
      3.328  0.7306E+00  0.2601E+02
      3.359  0.1371E+01  0.2605E+02
      3.390  0.1913E+01  0.2611E+02
      3.422  0.1703E+01  0.2616E+02
      3.453  0.8291E+00  0.2619E+02
      3.484  0.2359E+00  0.2620E+02
      3.515  0.2770E+00  0.2621E+02
      3.546  0.9123E+00  0.2623E+02
      3.577  0.1581E+01  0.2628E+02
      3.609  0.1324E+01  0.2633E+02
      3.640  0.5350E+00  0.2634E+02
      3.671  0.1039E+00  0.2635E+02
      3.702  0.9661E-02  0.2635E+02
      3.733  0.4531E-03  0.2635E+02
      3.764  0.1029E-02  0.2635E+02
      3.796  0.1906E-01  0.2635E+02
      3.827  0.1696E+00  0.2635E+02
      3.858  0.7235E+00  0.2637E+02
      3.889  0.1485E+01  0.2642E+02
      3.920  0.1472E+01  0.2647E+02
      3.951  0.7104E+00  0.2649E+02
      3.983  0.2438E+00  0.2650E+02
      4.014  0.4962E+00  0.2651E+02
      4.045  0.1464E+01  0.2656E+02
      4.076  0.2524E+01  0.2664E+02
      4.107  0.2738E+01  0.2672E+02
      4.138  0.1954E+01  0.2678E+02
      4.170  0.8383E+00  0.2681E+02
      4.201  0.2098E+00  0.2681E+02
      4.232  0.1843E+00  0.2682E+02
      4.263  0.7060E+00  0.2684E+02
      4.294  0.1472E+01  0.2689E+02
      4.325  0.1484E+01  0.2693E+02
      4.357  0.7219E+00  0.2696E+02
      4.388  0.1690E+00  0.2696E+02
      4.419  0.1896E-01  0.2696E+02
      4.450  0.1019E-02  0.2696E+02