    3    3    1    1
  0.5765919E+02  0.3160200E-09  0.3160200E-09  0.2000000E-08  0.2000000E-15
  1.000000000000000E-004
  CAR 
 HSE06-BAND                              
     18     80     16
 
  0.0000000E+00  0.0000000E+00  0.0000000E+00  0.1234568E-01
      1        -19.847427   1.000000
      2        -18.492215   1.000000
      3        -10.012378   1.000000
      4         -6.279647   1.000000
      5         -6.279646   1.000000
      6         -5.593033   1.000000
      7         -4.809223   1.000000
      8         -4.809220   1.000000
      9         -3.449753   1.000000
     10          0.863351   0.000000
     11          0.863353   0.000000
     12          1.015605   0.000000
     13          1.015605   0.000000
     14          3.109712   0.000000
     15          3.316162   0.000000
     16          4.043911   0.000000
 
  0.1111111E+00  0.0000000E+00  0.0000000E+00  0.7407407E-01
      1        -19.640635   1.000000
      2        -18.388130   1.000000
      3         -9.760737   1.000000
      4         -6.751011   1.000000
      5         -6.207191   1.000000
      6         -6.049332   1.000000
      7         -5.149611   1.000000
      8         -4.611049   1.000000
      9         -3.560286   1.000000
     10          0.477758   0.000000
     11          0.643106   0.000000
     12          0.776260   0.000000
     13          1.204747   0.000000
     14          3.393690   0.000000
     15          3.569859   0.000000
     16          4.877428   0.000000
 
  0.2222222E+00  0.0000000E+00  0.0000000E+00  0.7407407E-01
      1        -19.072780   1.000000
      2        -18.104546   1.000000
      3         -9.247709   1.000000
      4         -7.667318   1.000000
      5         -7.208504   1.000000
      6         -5.853881   1.000000
      7         -5.454594   1.000000
      8         -4.898986   1.000000
      9         -4.047560   1.000000
     10         -0.053323   0.000000
     11          0.327114   0.000000
     12          0.826785   0.000000
     13          1.849786   0.000000
     14          4.109278   0.000000
     15          4.294625   0.000000
     16          4.964196   0.000000
 
  0.3333333E+00  0.0000000E+00  0.0000000E+00  0.7407407E-01
      1        -18.318976   1.000000
      2        -17.737452   1.000000
      3         -9.471807   1.000000
      4         -8.235099   1.000000
      5         -8.005270   1.000000
      6         -6.492217   1.000000
      7         -5.414633   1.000000
      8         -4.784063   1.000000
      9         -4.470900   1.000000
     10          0.085949   0.000000
     11          0.133934   0.000000
     12          1.540752   0.000000
     13          2.320311   0.000000
     14          5.138707   0.000000
     15          5.368388   0.000000
     16          6.299681   0.000000
 
  0.4444444E+00  0.0000000E+00  0.0000000E+00  0.7407407E-01
      1        -17.728446   1.000000
      2        -17.462786   1.000000
      3        -10.083375   1.000000
      4         -8.929013   1.000000
      5         -8.148950   1.000000
      6         -6.850577   1.000000
      7         -5.694626   1.000000
      8         -4.383652   1.000000
      9         -4.205349   1.000000
     10          0.133499   0.000000
     11          0.607781   0.000000
     12          2.060716   0.000000
     13          2.520234   0.000000
     14          4.699072   0.000000
     15          6.142418   0.000000
     16          6.370592   0.000000
 
  0.1111111E+00  0.1111111E+00  0.0000000E+00  0.7407407E-01
      1        -19.252506   1.000000
      2        -18.193434   1.000000
      3         -9.353248   1.000000
      4         -7.416678   1.000000
      5         -6.805629   1.000000
      6         -6.000265   1.000000
      7         -5.689531   1.000000
      8         -4.506918   1.000000
      9         -3.865608   1.000000
     10         -0.025021   0.000000
     11          0.436036   0.000000
     12          0.527182   0.000000
     13          1.788654   0.000000
     14          3.888709   0.000000
     15          4.062718   0.000000
     16          5.504906   0.000000
 
  0.2222222E+00  0.1111111E+00  0.0000000E+00  0.1481481E+00
      1        -18.584364   1.000000
      2        -17.861445   1.000000
      3         -9.148465   1.000000
      4         -7.906483   1.000000
      5         -7.711944   1.000000
      6         -6.820382   1.000000
      7         -5.427878   1.000000
      8         -4.845835   1.000000
      9         -4.250899   1.000000
     10         -0.279769   0.000000
     11          0.343794   0.000000
     12          0.897584   0.000000
     13          2.382696   0.000000
     14          4.795461   0.000000
     15          4.989566   0.000000
     16          6.965532   0.000000
 
  0.3333333E+00  0.1111111E+00  0.0000000E+00  0.1481481E+00
      1        -17.888055   1.000000
      2        -17.524094   1.000000
      3         -9.675826   1.000000
      4         -8.727387   1.000000
      5         -7.961435   1.000000
      6         -7.008747   1.000000
      7         -5.445039   1.000000
      8         -5.419217   1.000000
      9         -3.997876   1.000000
     10         -0.007764   0.000000
     11          0.550341   0.000000
     12          1.558917   0.000000
     13          2.570247   0.000000
     14          5.451127   0.000000
     15          6.172058   0.000000
     16          6.245840   0.000000
 
  0.4444444E+00  0.1111111E+00  0.0000000E+00  0.7407407E-01
      1        -17.570632   1.000000
      2        -17.375048   1.000000
      3         -9.972304   1.000000
      4         -9.138988   1.000000
      5         -8.111312   1.000000
      6         -7.000582   1.000000
      7         -5.700649   1.000000
      8         -5.364239   1.000000
      9         -3.702375   1.000000
     10          0.092146   0.000000
     11          0.856527   0.000000
     12          1.955545   0.000000
     13          2.445822   0.000000
     14          4.616475   0.000000
     15          7.162337   0.000000
     16          7.174927   0.000000
 
  0.2222222E+00  0.2222222E+00  0.0000000E+00  0.7407407E-01
      1        -17.954883   1.000000
      2        -17.544634   1.000000
      3         -9.338194   1.000000
      4         -8.585255   1.000000
      5         -7.697523   1.000000
      6         -7.258012   1.000000
      7         -6.265545   1.000000
      8         -5.151121   1.000000
      9         -4.003406   1.000000
     10         -0.149567   0.000000
     11          0.602960   0.000000
     12          1.061639   0.000000
     13          2.795664   0.000000
     14          5.780346   0.000000
     15          6.069319   0.000000
     16          6.732022   0.000000
 
  0.3333333E+00  0.2222222E+00  0.0000000E+00  0.1481481E+00
      1        -17.485793   1.000000
      2        -17.305827   1.000000
      3         -9.410495   1.000000
      4         -9.330115   1.000000
      5         -7.862897   1.000000
      6         -7.049403   1.000000
      7         -6.800503   1.000000
      8         -5.717742   1.000000
      9         -3.504888   1.000000
     10         -0.196536   0.000000
     11          1.142810   0.000000
     12          1.221255   0.000000
     13          3.024647   0.000000
     14          5.281994   0.000000
     15          6.925843   0.000000
     16          7.720906   0.000000
 
  0.3333333E+00  0.3333333E+00  0.0000000E+00  0.2469136E-01
      1        -17.321837   1.000000
      2        -17.209337   1.000000
      3         -9.617843   1.000000
      4         -8.833310   1.000000
      5         -8.077753   1.000000
      6         -7.598044   1.000000
      7         -6.814546   1.000000
      8         -6.060152   1.000000
      9         -3.133176   1.000000
     10         -0.596075   0.000000
     11          1.014252   0.000000
     12          1.595331   0.000000
     13          3.349222   0.000000
     14          5.544236   0.000000
     15          5.937275   0.000000
     16          7.926415   0.000000
 
  0.0000000E+00  0.0000000E+00  0.0000000E+00  0.0000000E+00
      1        -19.847427   1.000000
      2        -18.492215   1.000000
      3        -10.012378   1.000000
      4         -6.279647   1.000000
      5         -6.279646   1.000000
      6         -5.593033   1.000000
      7         -4.809223   1.000000
      8         -4.809220   1.000000
      9         -3.449753   1.000000
     10          0.863351   0.000000
     11          0.863354   0.000000
     12          1.015605   0.000000
     13          1.015605   0.000000
     14          3.109712   0.000000
     15          3.316164   0.000000
     16          4.019355   0.000000
 
  0.2083333E-01  0.0000000E+00  0.0000000E+00  0.0000000E+00
      1        -19.840012   1.000000
      2        -18.488480   1.000000
      3        -10.003026   1.000000
      4         -6.298043   1.000000
      5         -6.271285   1.000000
      6         -5.625622   1.000000
      7         -4.822559   1.000000
      8         -4.790331   1.000000
      9         -3.452750   1.000000
     10          0.850402   0.000000
     11          0.876969   0.000000
     12          0.990385   0.000000
     13          1.006157   0.000000
     14          3.121201   0.000000
     15          3.325256   0.000000
     16          3.983994   0.000000
 
  0.4166667E-01  0.0000000E+00  0.0000000E+00  0.0000000E+00
      1        -19.817829   1.000000
      2        -18.477310   1.000000
      3         -9.975186   1.000000
      4         -6.352352   1.000000
      5         -6.246315   1.000000
      6         -5.713615   1.000000
      7         -4.861896   1.000000
      8         -4.743926   1.000000
      9         -3.462181   1.000000
     10          0.814334   0.000000
     11          0.917062   0.000000
     12          0.918253   0.000000
     13          0.978275   0.000000
     14          3.154576   0.000000
     15          3.352434   0.000000
     16          4.010828   0.000000
 
  0.6250000E-01  0.0000000E+00  0.0000000E+00  0.0000000E+00
      1        -19.781074   1.000000
      2        -18.458797   1.000000
      3         -9.929495   1.000000
      4         -6.440081   1.000000
      5         -6.205083   1.000000
      6         -5.838801   1.000000
      7         -4.925312   1.000000
      8         -4.689624   1.000000
      9         -3.479249   1.000000
     10          0.762768   0.000000
     11          0.808731   0.000000
     12          0.933404   0.000000
     13          0.981281   0.000000
     14          3.207321   0.000000
     15          3.397436   0.000000
     16          4.167943   0.000000
 
  0.8333333E-01  0.0000000E+00  0.0000000E+00  0.0000000E+00
      1        -19.730054   1.000000
      2        -18.433114   1.000000
      3         -9.867054   1.000000
      4         -6.557336   1.000000
      5         -6.148164   1.000000
      6         -5.987158   1.000000
      7         -5.009915   1.000000
      8         -4.643352   1.000000
      9         -3.505858   1.000000
     10          0.674082   0.000000
     11          0.706325   0.000000
     12          0.873785   0.000000
     13          1.066317   0.000000
     14          3.277038   0.000000
     15          3.459935   0.000000
     16          4.225390   0.000000
 
  0.1041667E+00  0.0000000E+00  0.0000000E+00  0.0000000E+00
      1        -19.665223   1.000000
      2        -18.400493   1.000000
      3         -9.789540   1.000000
      4         -6.699204   1.000000
      5         -6.150369   1.000000
      6         -6.076387   1.000000
      7         -5.112223   1.000000
      8         -4.615271   1.000000
      9         -3.544374   1.000000
     10          0.527266   0.000000
     11          0.656444   0.000000
     12          0.802221   0.000000
     13          1.167952   0.000000
     14          3.362108   0.000000
     15          3.539554   0.000000
     16          4.320574   0.000000
 
  0.1250000E+00  0.0000000E+00  0.0000000E+00  0.0000000E+00
      1        -19.587150   1.000000
      2        -18.361260   1.000000
      3         -9.699318   1.000000
      4         -6.860099   1.000000
      5         -6.323723   1.000000
      6         -5.990801   1.000000
      7         -5.228492   1.000000
      8         -4.611098   1.000000
      9         -3.597229   1.000000
     10          0.380385   0.000000
     11          0.623335   0.000000
     12          0.721895   0.000000
     13          1.281682   0.000000
     14          3.461627   0.000000
     15          3.635981   0.000000
     16          4.392215   0.000000
 
  0.1458333E+00  0.0000000E+00  0.0000000E+00  0.0000000E+00
      1        -19.496548   1.000000
      2        -18.315812   1.000000
      3         -9.599674   1.000000
      4         -7.033960   1.000000
      5         -6.504514   1.000000
      6         -5.892726   1.000000
      7         -5.355012   1.000000
      8         -4.633016   1.000000
      9         -3.666360   1.000000
     10          0.244070   0.000000
     11          0.614611   0.000000
     12          0.636128   0.000000
     13          1.402988   0.000000
     14          3.575299   0.000000
     15          3.748795   0.000000
     16          4.490388   0.000000
 
  0.1666667E+00  0.0000000E+00  0.0000000E+00  0.0000000E+00
      1        -19.394273   1.000000
      2        -18.264607   1.000000
      3         -9.495134   1.000000
      4         -7.214219   1.000000
      5         -6.691081   1.000000
      6         -5.783738   1.000000
      7         -5.488289   1.000000
      8         -4.680161   1.000000
      9         -3.752459   1.000000
     10          0.126933   0.000000
     11          0.548253   0.000000
     12          0.634579   0.000000
     13          1.527668   0.000000
     14          3.702892   0.000000
     15          3.877578   0.000000
     16          4.569733   0.000000
 
  0.1875000E+00  0.0000000E+00  0.0000000E+00  0.0000000E+00
      1        -19.281341   1.000000
      2        -18.208212   1.000000
      3         -9.391960   1.000000
      4         -7.393648   1.000000
      5         -6.882280   1.000000
      6         -5.665684   1.000000
      7         -5.625165   1.000000
      8         -4.749203   1.000000
      9         -3.854263   1.000000
     10          0.035142   0.000000
     11          0.461459   0.000000
     12          0.684180   0.000000
     13          1.651947   0.000000
     14          3.844221   0.000000
     15          4.021813   0.000000
     16          4.864020   0.000000
 
  0.2083333E+00  0.0000000E+00  0.0000000E+00  0.0000000E+00
      1        -19.158958   1.000000
      2        -18.147300   1.000000
      3         -9.298768   1.000000
      4         -7.563843   1.000000
      5         -7.077133   1.000000
      6         -5.762858   1.000000
      7         -5.540673   1.000000
      8         -4.835150   1.000000
      9         -3.968047   1.000000
     10         -0.027853   0.000000
     11          0.378706   0.000000
     12          0.761577   0.000000
     13          1.772617   0.000000
     14          3.998946   0.000000
     15          4.180811   0.000000
     16          4.855131   0.000000
 
  0.2291667E+00  0.0000000E+00  0.0000000E+00  0.0000000E+00
      1        -19.028493   1.000000
      2        -18.082622   1.000000
      3         -9.226968   1.000000
      4         -7.714862   1.000000
      5         -7.274493   1.000000
      6         -5.898923   1.000000
      7         -5.411012   1.000000
      8         -4.932225   1.000000
      9         -4.087557   1.000000
     10         -0.061179   0.000000
     11          0.302659   0.000000
     12          0.862931   0.000000
     13          1.887148   0.000000
     14          4.166509   0.000000
     15          4.353761   0.000000
     16          5.020801   0.000000
 
  0.2500000E+00  0.0000000E+00  0.0000000E+00  0.0000000E+00
      1        -18.891540   1.000000
      2        -18.015070   1.000000
      3         -9.189952   1.000000
      4         -7.835988   1.000000
      5         -7.472954   1.000000
      6         -6.031299   1.000000
      7         -5.279242   1.000000
      8         -5.034766   1.000000
      9         -4.204527   1.000000
     10         -0.066117   0.000000
     11          0.235618   0.000000
     12          0.983217   0.000000
     13          1.993601   0.000000
     14          4.346052   0.000000
     15          4.539523   0.000000
     16          5.198880   0.000000
 
  0.2708333E+00  0.0000000E+00  0.0000000E+00  0.0000000E+00
      1        -18.749915   1.000000
      2        -17.945619   1.000000
      3         -9.198857   1.000000
      4         -7.919572   1.000000
      5         -7.670689   1.000000
      6         -6.158204   1.000000
      7         -5.148020   1.000000
      8         -5.137768   1.000000
      9         -4.309565   1.000000
     10         -0.045408   0.000000
     11          0.179431   0.000000
     12          1.116829   0.000000
     13          2.090671   0.000000
     14          4.536236   0.000000
     15          4.736584   0.000000
     16          5.559968   0.000000
 
  0.2916667E+00  0.0000000E+00  0.0000000E+00  0.0000000E+00
      1        -18.605674   1.000000
      2        -17.875366   1.000000
      3         -9.255782   1.000000
      4         -7.967172   1.000000
      5         -7.865420   1.000000
      6         -6.278134   1.000000
      7         -5.237222   1.000000
      8         -5.020016   1.000000
      9         -4.393445   1.000000
     10         -0.002585   0.000000
     11          0.135426   0.000000
     12          1.258029   0.000000
     13          2.177611   0.000000
     14          4.734868   0.000000
     15          4.942830   0.000000
     16          5.590451   0.000000
 
  0.3125000E+00  0.0000000E+00  0.0000000E+00  0.0000000E+00
      1        -18.461152   1.000000
      2        -17.805533   1.000000
      3         -9.351614   1.000000
      4         -8.054535   1.000000
      5         -7.990682   1.000000
      6         -6.389825   1.000000
      7         -5.330171   1.000000
      8         -4.897892   1.000000
      9         -4.448656   1.000000
     10          0.058489   0.000000
     11          0.104285   0.000000
     12          1.401130   0.000000
     13          2.254125   0.000000
     14          4.938269   0.000000
     15          5.155055   0.000000
     16          6.064171   0.000000
 
  0.3333333E+00  0.0000000E+00  0.0000000E+00  0.0000000E+00
      1        -18.318976   1.000000
      2        -17.737452   1.000000
      3         -9.471807   1.000000
      4         -8.235099   1.000000
      5         -8.005270   1.000000
      6         -6.492217   1.000000
      7         -5.414633   1.000000
      8         -4.784063   1.000000
      9         -4.470900   1.000000
     10          0.085949   0.000000
     11          0.133934   0.000000
     12          1.540752   0.000000
     13          2.320311   0.000000
     14          5.138779   0.000000
     15          5.368374   0.000000
     16          6.329956   0.000000
 
  0.3541667E+00  0.0000000E+00  0.0000000E+00  0.0000000E+00
      1        -18.182047   1.000000
      2        -17.672527   1.000000
      3         -9.602769   1.000000
      4         -8.404039   1.000000
      5         -8.021999   1.000000
      6         -6.584425   1.000000
      7         -5.489436   1.000000
      8         -4.680633   1.000000
      9         -4.460245   1.000000
     10          0.079526   0.000000
     11          0.219885   0.000000
     12          1.671972   0.000000
     13          2.376541   0.000000
     14          5.313696   0.000000
     15          5.575140   0.000000
     16          6.065524   0.000000
 
  0.3750000E+00  0.0000000E+00  0.0000000E+00  0.0000000E+00
      1        -18.053493   1.000000
      2        -17.612203   1.000000
      3         -9.733972   1.000000
      4         -8.558231   1.000000
      5         -8.045549   1.000000
      6         -6.665683   1.000000
      7         -5.553990   1.000000
      8         -4.589245   1.000000
      9         -4.421251   1.000000
     10          0.083296   0.000000
     11          0.312444   0.000000
     12          1.790568   0.000000
     13          2.423393   0.000000
     14          5.375965   0.000000
     15          5.818094   0.000000
     16          5.938042   0.000000
 
  0.3958333E+00  0.0000000E+00  0.0000000E+00  0.0000000E+00
      1        -17.936638   1.000000
      2        -17.557948   1.000000
      3         -9.857489   1.000000
      4         -8.694680   1.000000
      5         -8.075452   1.000000
      6         -6.735387   1.000000
      7         -5.608118   1.000000
      8         -4.511097   1.000000
      9         -4.362170   1.000000
     10          0.094771   0.000000
     11          0.407322   0.000000
     12          1.893233   0.000000
     13          2.461522   0.000000
     14          5.222364   0.000000
     15          5.920203   0.000000
     16          5.982881   0.000000
 
  0.4166667E+00  0.0000000E+00  0.0000000E+00  0.0000000E+00
      1        -17.834911   1.000000
      2        -17.511200   1.000000
      3         -9.967166   1.000000
      4         -8.810591   1.000000
      5         -8.108278   1.000000
      6         -6.793064   1.000000
      7         -5.651918   1.000000
      8         -4.446935   1.000000
      9         -4.293397   1.000000
     10          0.110819   0.000000
     11          0.499543   0.000000
     12          1.977782   0.000000
     13          2.491589   0.000000
     14          4.986815   0.000000
     15          6.035975   0.000000
     16          6.145560   0.000000
 
  0.4375000E+00  0.0000000E+00  0.0000000E+00  0.0000000E+00
      1        -17.751598   1.000000
      2        -17.473268   1.000000
      3        -10.058007   1.000000
      4         -8.903513   1.000000
      5         -8.139593   1.000000
      6         -6.838311   1.000000
      7         -5.685601   1.000000
      8         -4.397078   1.000000
      9         -4.225831   1.000000
     10          0.128061   0.000000
     11          0.583077   0.000000
     12          2.043204   0.000000
     13          2.514238   0.000000
     14          4.764198   0.000000
     15          6.118220   0.000000
     16          6.316985   0.000000
 
  0.4583333E+00  0.0000000E+00  0.0000000E+00  0.0000000E+00
      1        -17.689653   1.000000
      2        -17.445297   1.000000
      3        -10.125968   1.000000
      4         -8.971422   1.000000
      5         -8.165226   1.000000
      6         -6.870833   1.000000
      7         -5.709425   1.000000
      8         -4.361577   1.000000
      9         -4.169444   1.000000
     10          0.143228   0.000000
     11          0.650826   0.000000
     12          2.089370   0.000000
     13          2.529997   0.000000
     14          4.587119   0.000000
     15          6.176862   0.000000
     16          6.466673   0.000000
 
  0.4791667E+00  0.0000000E+00  0.0000000E+00  0.0000000E+00
      1        -17.651447   1.000000
      2        -17.428148   1.000000
      3        -10.168015   1.000000
      4         -9.012803   1.000000
      5         -8.181937   1.000000
      6         -6.890429   1.000000
      7         -5.723616   1.000000
      8         -4.340343   1.000000
      9         -4.132189   1.000000
     10          0.153562   0.000000
     11          0.695451   0.000000
     12          2.116736   0.000000
     13          2.539286   0.000000
     14          4.473481   0.000000
     15          6.212026   0.000000
     16          6.571533   0.000000
 
  0.5000000E+00  0.0000000E+00  0.0000000E+00  0.0000000E+00
      1        -17.638535   1.000000
      2        -17.422364   1.000000
      3        -10.182255   1.000000
      4         -9.026699   1.000000
      5         -8.187733   1.000000
      6         -6.896964   1.000000
      7         -5.728331   1.000000
      8         -4.333281   1.000000
      9         -4.119183   1.000000
     10          0.157236   0.000000
     11          0.711083   0.000000
     12          2.125777   0.000000
     13          2.542353   0.000000
     14          4.434324   0.000000
     15          6.231261   0.000000
     16          6.609905   0.000000
 
  0.5000000E+00  0.0000000E+00  0.0000000E+00  0.0000000E+00
      1        -17.638535   1.000000
      2        -17.422364   1.000000
      3        -10.182255   1.000000
      4         -9.026699   1.000000
      5         -8.187733   1.000000
      6         -6.896964   1.000000
      7         -5.728331   1.000000
      8         -4.333281   1.000000
      9         -4.119183   1.000000
     10          0.157236   0.000000
     11          0.711083   0.000000
     12          2.125777   0.000000
     13          2.542353   0.000000
     14          4.434325   0.000000
     15          6.230798   0.000000
     16          6.609837   0.000000
 
  0.4871795E+00  0.2564103E-01  0.0000000E+00  0.0000000E+00
      1        -17.634705   1.000000
      2        -17.419680   1.000000
      3        -10.170840   1.000000
      4         -9.032515   1.000000
      5         -8.183286   1.000000
      6         -6.905499   1.000000
      7         -5.724712   1.000000
      8         -4.458023   1.000000
      9         -4.031409   1.000000
     10          0.156419   0.000000
     11          0.717451   0.000000
     12          2.143107   0.000000
     13          2.501886   0.000000
     14          4.445073   0.000000
     15          6.294606   0.000000
     16          6.643504   0.000000
 
  0.4743590E+00  0.5128205E-01  0.0000000E+00  0.0000000E+00
      1        -17.623366   1.000000
      2        -17.411756   1.000000
      3        -10.136766   1.000000
      4         -9.050149   1.000000
      5         -8.170220   1.000000
      6         -6.928629   1.000000
      7         -5.715662   1.000000
      8         -4.684885   1.000000
      9         -3.912326   1.000000
     10          0.151656   0.000000
     11          0.737872   0.000000
     12          2.191612   0.000000
     13          2.392315   0.000000
     14          4.476365   0.000000
     15          6.469832   0.000000
     16          6.741913   0.000000
 
  0.4615385E+00  0.7692308E-01  0.0000000E+00  0.0000000E+00
      1        -17.604948   1.000000
      2        -17.398897   1.000000
      3        -10.080491   1.000000
      4         -9.079979   1.000000
      5         -8.149285   1.000000
      6         -6.959959   1.000000
      7         -5.705744   1.000000
      8         -4.955314   1.000000
      9         -3.811584   1.000000
     10          0.137191   0.000000
     11          0.775470   0.000000
     12          2.195498   0.000000
     13          2.308668   0.000000
     14          4.526028   0.000000
     15          6.755246   0.000000
     16          6.897423   0.000000
 
  0.4487179E+00  0.1025641E+00  0.0000000E+00  0.0000000E+00
      1        -17.580151   1.000000
      2        -17.381649   1.000000
      3        -10.002787   1.000000
      4         -9.122211   1.000000
      5         -8.121705   1.000000
      6         -6.991416   1.000000
      7         -5.700478   1.000000
      8         -5.257778   1.000000
      9         -3.727699   1.000000
     10          0.106667   0.000000
     11          0.832890   0.000000
     12          2.020397   0.000000
     13          2.404664   0.000000
     14          4.591503   0.000000
     15          7.086326   0.000000
     16          7.095478   0.000000
 
  0.4358974E+00  0.1282051E+00  0.0000000E+00  0.0000000E+00
      1        -17.549970   1.000000
      2        -17.360762   1.000000
      3         -9.904748   1.000000
      4         -9.176323   1.000000
      5         -8.089134   1.000000
      6         -7.015473   1.000000
      7         -5.704794   1.000000
      8         -5.583700   1.000000
      9         -3.654117   1.000000
     10          0.056148   0.000000
     11          0.910111   0.000000
     12          1.825288   0.000000
     13          2.534819   0.000000
     14          4.670776   0.000000
     15          7.307303   0.000000
     16          7.416208   0.000000
 
  0.4230769E+00  0.1538462E+00  0.0000000E+00  0.0000000E+00
      1        -17.515684   1.000000
      2        -17.337197   1.000000
      3         -9.787817   1.000000
      4         -9.240590   1.000000
      5         -8.053594   1.000000
      6         -7.026557   1.000000
      7         -5.924286   1.000000
      8         -5.722155   1.000000
      9         -3.584165   1.000000
     10         -0.014843   0.000000
     11          1.004059   0.000000
     12          1.637182   0.000000
     13          2.678878   0.000000
     14          4.762547   0.000000
     15          7.458226   0.000000
     16          7.598944   0.000000
 
  0.4102564E+00  0.1794872E+00  0.0000000E+00  0.0000000E+00
      1        -17.478856   1.000000
      2        -17.312107   1.000000
      3         -9.653863   1.000000
      4         -9.311907   1.000000
      5         -8.017492   1.000000
      6         -7.021661   1.000000
      7         -6.270313   1.000000
      8         -5.754243   1.000000
      9         -3.512609   1.000000
     10         -0.103778   0.000000
     11          1.109695   0.000000
     12          1.467087   0.000000
     13          2.827040   0.000000
     14          4.866012   0.000000
     15          7.541501   0.000000
     16          7.748022   0.000000
 
  0.3974359E+00  0.2051282E+00  0.0000000E+00  0.0000000E+00
      1        -17.441300   1.000000
      2        -17.286803   1.000000
      3         -9.505338   1.000000
      4         -9.385949   1.000000
      5         -7.983843   1.000000
      6         -7.000325   1.000000
      7         -6.611761   1.000000