    3    3    1    2
  0.5740403E+02  0.3153200E-09  0.3153200E-09  0.2000000E-08  0.5000000E-15
  1.000000000000000E-004
  CAR 
 anon                                    
     18     60     64
 
  0.0000000E+00  0.0000000E+00  0.0000000E+00  0.1666667E-01
      1        -16.950706      -16.950707   1.000000   1.000000
      2        -15.391898      -15.391901   1.000000   1.000000
      3         -8.559562       -8.559560   1.000000   1.000000
      4         -4.910573       -4.910572   1.000000   1.000000
      5         -4.910570       -4.910568   1.000000   1.000000
      6         -4.333102       -4.333104   1.000000   1.000000
      7         -3.654949       -3.654949   1.000000   1.000000
      8         -3.654936       -3.654937   1.000000   1.000000
      9         -2.288681       -2.288677   1.000000   1.000000
     10          0.847466        0.847466   0.000000   0.000000
     11          0.847475        0.847475   0.000000   0.000000
     12          0.964936        0.964935   0.000000   0.000000
     13          0.964940        0.964939   0.000000   0.000000
     14          2.891901        2.895682   0.000000   0.000000
     15          3.186626        3.192511   0.000000   0.000000
     16          3.565395        3.570593   0.000000   0.000000
     17          4.146335        4.149747   0.000000   0.000000
     18          5.008757        5.023102   0.000000   0.000000
     19          6.190296        6.197707   0.000000   0.000000
     20          6.733119        6.733164   0.000000   0.000000
     21          7.866066        7.872333   0.000000   0.000000
     22          8.636207        8.636204   0.000000   0.000000
     23          8.636209        8.636206   0.000000   0.000000
     24          9.020200        9.027474   0.000000   0.000000
     25         10.707420       10.709794   0.000000   0.000000
     26         10.895749       10.895746   0.000000   0.000000
     27         10.895755       10.895753   0.000000   0.000000
     28         11.629701       11.636028   0.000000   0.000000
     29         12.945592       12.951109   0.000000   0.000000
     30         13.914021       13.914148   0.000000   0.000000
     31         14.448954       14.448950   0.000000   0.000000
     32         14.448959       14.448955   0.000000   0.000000
     33         14.784491       14.784486   0.000000   0.000000
     34         14.784493       14.784488   0.000000   0.000000
     35         15.816617       15.820641   0.000000   0.000000
     36         16.244369       16.251226   0.000000   0.000000
     37         17.364154       17.364496   0.000000   0.000000
     38         18.222082       18.224695   0.000000   0.000000
     39         20.804465       20.804614   0.000000   0.000000
     40         20.804470       20.804617   0.000000   0.000000
     41         21.106960       21.111077   0.000000   0.000000
     42         21.556276       21.563493   0.000000   0.000000
     43         22.403341       22.404803   0.000000   0.000000
     44         22.403356       22.404807   0.000000   0.000000
     45         22.770007       22.772535   0.000000   0.000000
     46         22.973087       22.977330   0.000000   0.000000
     47         22.993659       22.997987   0.000000   0.000000
     48         22.993692       22.998029   0.000000   0.000000
     49         23.111557       23.115758   0.000000   0.000000
     50         23.111585       23.115761   0.000000   0.000000
     51         23.313899       23.320922   0.000000   0.000000
     52         23.493795       23.500942   0.000000   0.000000
     53         23.605716       23.616436   0.000000   0.000000
     54         23.606021       23.616606   0.000000   0.000000
     55         24.052294       24.059603   0.000000   0.000000
     56         24.057864       24.065818   0.000000   0.000000
     57         24.057902       24.065865   0.000000   0.000000
     58         24.150607       24.156570   0.000000   0.000000
     59         24.523946       24.539472   0.000000   0.000000
     60         24.524226       24.539616   0.000000   0.000000
     61         24.588319       24.590849   0.000000   0.000000
     62         24.588362       24.590874   0.000000   0.000000
     63         24.637647       24.652900   0.000000   0.000000
     64         24.982182       24.997424   0.000000   0.000000
 
  0.2631579E-01  0.0000000E+00  0.0000000E+00  0.1666667E-01
      1        -16.939191      -16.939192   1.000000   1.000000
      2        -15.387041      -15.387043   1.000000   1.000000
      3         -8.545301       -8.545300   1.000000   1.000000
      4         -4.943011       -4.943009   1.000000   1.000000
      5         -4.898907       -4.898905   1.000000   1.000000
      6         -4.379060       -4.379061   1.000000   1.000000
      7         -3.674909       -3.674909   1.000000   1.000000
      8         -3.629556       -3.629557   1.000000   1.000000
      9         -2.292503       -2.292499   1.000000   1.000000
     10          0.833016        0.833017   0.000000   0.000000
     11          0.870383        0.870383   0.000000   0.000000
     12          0.928706        0.928707   0.000000   0.000000
     13          0.953638        0.953637   0.000000   0.000000
     14          2.922072        2.926044   0.000000   0.000000
     15          3.200902        3.206786   0.000000   0.000000
     16          3.604198        3.609342   0.000000   0.000000
     17          4.168483        4.171761   0.000000   0.000000
     18          5.022228        5.036571   0.000000   0.000000
     19          6.204995        6.212393   0.000000   0.000000
     20          6.786234        6.786285   0.000000   0.000000
     21          7.878614        7.884874   0.000000   0.000000
     22          8.534111        8.534676   0.000000   0.000000
     23          8.670262        8.670259   0.000000   0.000000
     24          9.092020        9.098845   0.000000   0.000000
     25         10.730742       10.732973   0.000000   0.000000
     26         10.783979       10.784008   0.000000   0.000000
     27         10.895336       10.895333   0.000000   0.000000
     28         11.643095       11.649384   0.000000   0.000000
     29         12.952175       12.957724   0.000000   0.000000
     30         14.027944       14.028054   0.000000   0.000000
     31         14.342589       14.342669   0.000000   0.000000
     32         14.473460       14.473456   0.000000   0.000000
     33         14.739682       14.739677   0.000000   0.000000
     34         14.760568       14.760600   0.000000   0.000000
     35         15.850738       15.854749   0.000000   0.000000
     36         16.281754       16.288656   0.000000   0.000000
     37         17.504171       17.504413   0.000000   0.000000
     38         18.230491       18.233049   0.000000   0.000000
     39         20.602964       20.604020   0.000000   0.000000
     40         20.843537       20.843721   0.000000   0.000000
     41         21.267219       21.270635   0.000000   0.000000
     42         21.523993       21.529877   0.000000   0.000000
     43         21.776173       21.779778   0.000000   0.000000
     44         22.193837       22.195893   0.000000   0.000000
     45         22.229985       22.235805   0.000000   0.000000
     46         22.599495       22.604549   0.000000   0.000000
     47         22.750328       22.756065   0.000000   0.000000
     48         22.815990       22.824496   0.000000   0.000000
     49         23.225225       23.231097   0.000000   0.000000
     50         23.310175       23.314340   0.000000   0.000000
     51         23.330720       23.334465   0.000000   0.000000
     52         23.542375       23.549545   0.000000   0.000000
     53         23.552001       23.556619   0.000000   0.000000
     54         23.753417       23.757963   0.000000   0.000000
     55         23.753561       23.767461   0.000000   0.000000
     56         24.067428       24.074094   0.000000   0.000000
     57         24.118316       24.126930   0.000000   0.000000
     58         24.275006       24.289730   0.000000   0.000000
     59         24.324691       24.331441   0.000000   0.000000
     60         24.521825       24.535337   0.000000   0.000000
     61         24.616039       24.623541   0.000000   0.000000
     62         24.860659       24.864817   0.000000   0.000000
     63         25.075440       25.082991   0.000000   0.000000
     64         25.202974       25.209179   0.000000   0.000000
 
  0.5263158E-01  0.0000000E+00  0.0000000E+00  0.1666667E-01
      1        -16.904781      -16.904781   1.000000   1.000000
      2        -15.372534      -15.372537   1.000000   1.000000
      3         -8.502789       -8.502788   1.000000   1.000000
      4         -5.037272       -5.037270   1.000000   1.000000
      5         -4.863742       -4.863741   1.000000   1.000000
      6         -4.497419       -4.497420   1.000000   1.000000
      7         -3.732697       -3.732697   1.000000   1.000000
      8         -3.573731       -3.573731   1.000000   1.000000
      9         -2.304867       -2.304863   1.000000   1.000000
     10          0.795606        0.795607   0.000000   0.000000
     11          0.829385        0.829391   0.000000   0.000000
     12          0.921071        0.921070   0.000000   0.000000
     13          0.937179        0.937179   0.000000   0.000000
     14          3.002097        3.006560   0.000000   0.000000
     15          3.243522        3.249400   0.000000   0.000000
     16          3.717481        3.722586   0.000000   0.000000
     17          4.238827        4.241663   0.000000   0.000000
     18          5.062527        5.076864   0.000000   0.000000
     19          6.248690        6.256042   0.000000   0.000000
     20          6.939293        6.939362   0.000000   0.000000
     21          7.915882        7.922113   0.000000   0.000000
     22          8.326341        8.327186   0.000000   0.000000
     23          8.773641        8.773638   0.000000   0.000000
     24          9.219532        9.226369   0.000000   0.000000
     25         10.500063       10.500143   0.000000   0.000000
     26         10.786786       10.788663   0.000000   0.000000
     27         10.896019       10.896016   0.000000   0.000000
     28         11.679899       11.686119   0.000000   0.000000
     29         12.970521       12.976149   0.000000   0.000000
     30         13.971004       13.971070   0.000000   0.000000
     31         14.444042       14.444335   0.000000   0.000000
     32         14.546106       14.546101   0.000000   0.000000
     33         14.613397       14.613392   0.000000   0.000000
     34         14.696223       14.696371   0.000000   0.000000
     35         15.952738       15.956722   0.000000   0.000000
     36         16.369917       16.376830   0.000000   0.000000
     37         17.880536       17.880643   0.000000   0.000000
     38         18.255935       18.258321   0.000000   0.000000
     39         20.276459       20.277999   0.000000   0.000000
     40         20.817043       20.819728   0.000000   0.000000
     41         20.945798       20.946158   0.000000   0.000000
     42         21.249319       21.255128   0.000000   0.000000
     43         21.596131       21.601246   0.000000   0.000000
     44         21.626581       21.633874   0.000000   0.000000
     45         21.825580       21.828169   0.000000   0.000000
     46         22.037891       22.043802   0.000000   0.000000
     47         22.102938       22.108719   0.000000   0.000000
     48         22.356126       22.362513   0.000000   0.000000
     49         22.601531       22.609464   0.000000   0.000000
     50         22.822452       22.836570   0.000000   0.000000
     51         23.150939       23.156706   0.000000   0.000000
     52         23.343260       23.346890   0.000000   0.000000
     53         23.498091       23.507458   0.000000   0.000000
     54         23.807779       23.819890   0.000000   0.000000
     55         23.999839       24.003373   0.000000   0.000000
     56         24.079093       24.083912   0.000000   0.000000
     57         24.094195       24.103138   0.000000   0.000000
     58         24.300274       24.306805   0.000000   0.000000
     59         24.533889       24.541760   0.000000   0.000000
     60         24.887626       24.894081   0.000000   0.000000
     61         25.032475       25.038407   0.000000   0.000000
     62         25.057206       25.064752   0.000000   0.000000
     63         25.160543       25.167494   0.000000   0.000000
     64         25.287103       25.294003   0.000000   0.000000
 
  0.7894737E-01  0.0000000E+00  0.0000000E+00  0.1666667E-01
      1        -16.847955      -16.847956   1.000000   1.000000
      2        -15.348596      -15.348598   1.000000   1.000000
      3         -8.433140       -8.433138   1.000000   1.000000
      4         -5.185554       -5.185552   1.000000   1.000000
      5         -4.806334       -4.806333   1.000000   1.000000
      6         -4.657911       -4.657912   1.000000   1.000000
      7         -3.823542       -3.823543   1.000000   1.000000
      8         -3.520262       -3.520263   1.000000   1.000000
      9         -2.329271       -2.329268   1.000000   1.000000
     10          0.688630        0.688641   0.000000   0.000000
     11          0.750088        0.750092   0.000000   0.000000
     12          0.870197        0.870196   0.000000   0.000000
     13          1.041736        1.041735   0.000000   0.000000
     14          3.111905        3.116938   0.000000   0.000000
     15          3.313913        3.319779   0.000000   0.000000
     16          3.887444        3.892792   0.000000   0.000000
     17          4.371220        4.373266   0.000000   0.000000
     18          5.129254        5.143583   0.000000   0.000000
     19          6.320174        6.327432   0.000000   0.000000
     20          7.172880        7.172994   0.000000   0.000000
     21          7.976525        7.982683   0.000000   0.000000
     22          8.087547        8.088429   0.000000   0.000000
     23          8.940067        8.940064   0.000000   0.000000
     24          9.349335        9.356472   0.000000   0.000000
     25         10.134523       10.134660   0.000000   0.000000
     26         10.841288       10.842745   0.000000   0.000000
     27         10.901796       10.901793   0.000000   0.000000
     28         11.734096       11.740215   0.000000   0.000000
     29         12.995266       13.000959   0.000000   0.000000
     30         13.610206       13.610414   0.000000   0.000000
     31         14.415507       14.415503   0.000000   0.000000
     32         14.607783       14.608160   0.000000   0.000000
     33         14.660366       14.660362   0.000000   0.000000
     34         14.907491       14.907952   0.000000   0.000000
     35         16.119998       16.123964   0.000000   0.000000
     36         16.492010       16.498777   0.000000   0.000000
     37         18.294136       18.296232   0.000000   0.000000
     38         18.401010       18.401060   0.000000   0.000000
     39         19.858017       19.860918   0.000000   0.000000
     40         19.930280       19.933431   0.000000   0.000000
     41         20.546273       20.553314   0.000000   0.000000
     42         21.046709       21.047793   0.000000   0.000000
     43         21.182578       21.187046   0.000000   0.000000
     44         21.372090       21.380039   0.000000   0.000000
     45         21.445569       21.448535   0.000000   0.000000
     46         21.743311       21.747472   0.000000   0.000000
     47         21.745048       21.752782   0.000000   0.000000
     48         22.018669       22.024817   0.000000   0.000000
     49         22.028581       22.040076   0.000000   0.000000
     50         22.158973       22.167642   0.000000   0.000000
     51         22.713917       22.719125   0.000000   0.000000
     52         22.921717       22.925851   0.000000   0.000000
     53         23.256138       23.270295   0.000000   0.000000
     54         23.327709       23.341411   0.000000   0.000000
     55         23.436701       23.442471   0.000000   0.000000
     56         24.367100       24.373507   0.000000   0.000000
     57         24.375613       24.379458   0.000000   0.000000
     58         24.433042       24.436091   0.000000   0.000000
     59         24.549664       24.555664   0.000000   0.000000
     60         24.739304       24.743864   0.000000   0.000000
     61         25.045919       25.052703   0.000000   0.000000
     62         25.187519       25.196509   0.000000   0.000000
     63         25.507041       25.516024   0.000000   0.000000
     64         25.794957       25.804593   0.000000   0.000000
 
  0.1052632E+00  0.0000000E+00  0.0000000E+00  0.1666667E-01
      1        -16.769501      -16.769502   1.000000   1.000000
      2        -15.315586      -15.315589   1.000000   1.000000
      3         -8.338270       -8.338269   1.000000   1.000000
      4         -5.376872       -5.376870   1.000000   1.000000
      5         -4.842284       -4.842285   1.000000   1.000000
      6         -4.727861       -4.727860   1.000000   1.000000
      7         -3.940560       -3.940561   1.000000   1.000000
      8         -3.490015       -3.490017   1.000000   1.000000
      9         -2.370856       -2.370853   1.000000   1.000000
     10          0.531105        0.531118   0.000000   0.000000
     11          0.714885        0.714891   0.000000   0.000000
     12          0.805813        0.805812   0.000000   0.000000
     13          1.175823        1.175823   0.000000   0.000000
     14          3.238791        3.244273   0.000000   0.000000
     15          3.411310        3.417151   0.000000   0.000000
     16          4.076068        4.081877   0.000000   0.000000
     17          4.587442        4.588622   0.000000   0.000000
     18          5.221743        5.236063   0.000000   0.000000
     19          6.418427        6.425513   0.000000   0.000000
     20          7.453557        7.453791   0.000000   0.000000
     21          7.846582        7.847505   0.000000   0.000000
     22          8.058360        8.064327   0.000000   0.000000
     23          9.164997        9.164994   0.000000   0.000000
     24          9.476436        9.483846   0.000000   0.000000
     25          9.761078        9.761311   0.000000   0.000000
     26         10.859453       10.860543   0.000000   0.000000
     27         10.920112       10.920109   0.000000   0.000000
     28         11.795029       11.800922   0.000000   0.000000
     29         13.013573       13.019195   0.000000   0.000000
     30         13.240589       13.241057   0.000000   0.000000
     31         14.161892       14.161889   0.000000   0.000000
     32         14.523995       14.524807   0.000000   0.000000
     33         14.809121       14.809117   0.000000   0.000000
     34         15.439666       15.440574   0.000000   0.000000
     35         16.346866       16.350834   0.000000   0.000000
     36         16.661043       16.667360   0.000000   0.000000
     37         18.308781       18.310593   0.000000   0.000000
     38         18.962047       18.962853   0.000000   0.000000
     39         19.072151       19.075033   0.000000   0.000000
     40         19.248314       19.254065   0.000000   0.000000
     41         19.957795       19.963969   0.000000   0.000000
     42         20.447837       20.450210   0.000000   0.000000
     43         20.682366       20.694079   0.000000   0.000000
     44         20.984885       20.987899   0.000000   0.000000
     45         21.081240       21.084539   0.000000   0.000000
     46         21.396871       21.404605   0.000000   0.000000
     47         21.626427       21.634650   0.000000   0.000000
     48         21.825943       21.833403   0.000000   0.000000
     49         21.876764       21.882359   0.000000   0.000000
     50         21.892642       21.898317   0.000000   0.000000
     51         22.315864       22.319643   0.000000   0.000000
     52         22.380151       22.386558   0.000000   0.000000
     53         22.796452       22.809115   0.000000   0.000000
     54         22.826972       22.830401   0.000000   0.000000
     55         22.901333       22.916181   0.000000   0.000000
     56         23.682978       23.691563   0.000000   0.000000
     57         24.108173       24.114196   0.000000   0.000000
     58         24.556565       24.561706   0.000000   0.000000
     59         24.716274       24.719767   0.000000   0.000000
     60         25.006106       25.012008   0.000000   0.000000
     61         25.166613       25.170787   0.000000   0.000000
     62         25.442644       25.449760   0.000000   0.000000
     63         25.577070       25.582257   0.000000   0.000000
     64         25.691886       25.698395   0.000000   0.000000
 
  0.1315789E+00  0.0000000E+00  0.0000000E+00  0.1666667E-01
      1        -16.670541      -16.670542   1.000000   1.000000
      2        -15.274036      -15.274038   1.000000   1.000000
      3         -8.221378       -8.221377   1.000000   1.000000
      4         -5.598916       -5.598914   1.000000   1.000000
      5         -5.041478       -5.041479   1.000000   1.000000
      6         -4.630369       -4.630367   1.000000   1.000000
      7         -4.076319       -4.076319   1.000000   1.000000
      8         -3.492458       -3.492460   1.000000   1.000000
      9         -2.436038       -2.436036   1.000000   1.000000
     10          0.379812        0.379825   0.000000   0.000000
     11          0.706146        0.706154   0.000000   0.000000
     12          0.733595        0.733594   0.000000   0.000000
     13          1.329942        1.329941   0.000000   0.000000
     14          3.379562        3.385293   0.000000   0.000000
     15          3.534775        3.540573   0.000000   0.000000
     16          4.255539        4.261623   0.000000   0.000000
     17          4.885435        4.886161   0.000000   0.000000
     18          5.338879        5.353188   0.000000   0.000000
     19          6.544104        6.550882   0.000000   0.000000
     20          7.621825        7.622877   0.000000   0.000000
     21          7.715772        7.716370   0.000000   0.000000
     22          8.163292        8.168731   0.000000   0.000000
     23          9.439665        9.439662   0.000000   0.000000
     24          9.451893        9.452324   0.000000   0.000000
     25          9.599529        9.607077   0.000000   0.000000
     26         10.820245       10.821104   0.000000   0.000000
     27         10.958141       10.958138   0.000000   0.000000
     28         11.836090       11.841383   0.000000   0.000000
     29         12.932863       12.933970   0.000000   0.000000
     30         13.002429       13.007714   0.000000   0.000000
     31         13.868174       13.868171   0.000000   0.000000
     32         14.480152       14.481710   0.000000   0.000000
     33         14.983186       14.983183   0.000000   0.000000
     34         15.957706       15.959716   0.000000   0.000000
     35         16.622357       16.626327   0.000000   0.000000
     36         16.904205       16.909369   0.000000   0.000000
     37         18.053228       18.056779   0.000000   0.000000
     38         18.209635       18.213848   0.000000   0.000000
     39         18.725314       18.731730   0.000000   0.000000
     40         19.299717       19.303730   0.000000   0.000000
     41         19.483335       19.484361   0.000000   0.000000
     42         19.931192       19.944069   0.000000   0.000000
     43         20.056869       20.058808   0.000000   0.000000
     44         20.705885       20.710141   0.000000   0.000000
     45         20.740590       20.744218   0.000000   0.000000
     46         20.981604       20.986977   0.000000   0.000000
     47         21.252397       21.261583   0.000000   0.000000
     48         21.469157       21.476357   0.000000   0.000000
     49         21.730012       21.737828   0.000000   0.000000
     50         21.928097       21.935952   0.000000   0.000000
     51         22.007852       22.012708   0.000000   0.000000
     52         22.196712       22.196960   0.000000   0.000000
     53         22.241490       22.251919   0.000000   0.000000
     54         22.517302       22.520555   0.000000   0.000000
     55         22.550905       22.565856   0.000000   0.000000
     56         23.044903       23.055152   0.000000   0.000000
     57         23.663314       23.669271   0.000000   0.000000
     58         24.319747       24.326277   0.000000   0.000000
     59         24.505097       24.513114   0.000000   0.000000
     60         24.799016       24.803980   0.000000   0.000000
     61         24.833805       24.839568   0.000000   0.000000
     62         25.589439       25.592881   0.000000   0.000000
     63         25.829360       25.833412   0.000000   0.000000
     64         25.919638       25.923191   0.000000   0.000000
 
  0.1578947E+00  0.0000000E+00  0.0000000E+00  0.1666667E-01
      1        -16.552511      -16.552512   1.000000   1.000000
      2        -15.224640      -15.224642   1.000000   1.000000
      3         -8.087270       -8.087269   1.000000   1.000000
      4         -5.839149       -5.839147   1.000000   1.000000
      5         -5.250782       -5.250783   1.000000   1.000000
      6         -4.516518       -4.516517   1.000000   1.000000
      7         -4.223917       -4.223917   1.000000   1.000000
      8         -3.529004       -3.529007   1.000000   1.000000
      9         -2.529717       -2.529715   1.000000   1.000000
     10          0.254181        0.254194   0.000000   0.000000
     11          0.659664        0.659663   0.000000   0.000000
     12          0.733796        0.733806   0.000000   0.000000
     13          1.494801        1.494801   0.000000   0.000000
     14          3.534763        3.540552   0.000000   0.000000
     15          3.683193        3.688920   0.000000   0.000000
     16          4.429549        4.435765   0.000000   0.000000
     17          5.218249        5.218907   0.000000   0.000000
     18          5.478980        5.493273   0.000000   0.000000
     19          6.702285        6.708535   0.000000   0.000000
     20          7.432650        7.433985   0.000000   0.000000
     21          7.828439        7.829625   0.000000   0.000000
     22          8.314862        8.319492   0.000000   0.000000
     23          9.309168        9.309864   0.000000   0.000000
     24          9.712725        9.720194   0.000000   0.000000
     25          9.753566        9.753564   0.000000   0.000000
     26         10.728373       10.729210   0.000000   0.000000
     27         11.022993       11.022990   0.000000   0.000000
     28         11.806863       11.810873   0.000000   0.000000
     29         12.761909       12.764353   0.000000   0.000000
     30         12.937836       12.942563   0.000000   0.000000
     31         13.551550       13.551548   0.000000   0.000000
     32         14.503839       14.506405   0.000000   0.000000
     33         15.171047       15.171045   0.000000   0.000000
     34         16.383277       16.387088   0.000000   0.000000
     35         16.919062       16.922946   0.000000   0.000000
     36         17.089409       17.092847   0.000000   0.000000
     37         17.367392       17.373457   0.000000   0.000000
     38         17.588012       17.592890   0.000000   0.000000
     39         18.218069       18.224469   0.000000   0.000000
     40         18.930248       18.931676   0.000000   0.000000
     41         19.049928       19.062523   0.000000   0.000000
     42         19.806766       19.809598   0.000000   0.000000
     43         19.869836       19.872325   0.000000   0.000000
     44         20.346619       20.351041   0.000000   0.000000
     45         20.427115       20.431088   0.000000   0.000000
     46         20.707192       20.714811   0.000000   0.000000
     47         20.911454       20.915361   0.000000   0.000000
     48         21.008945       21.018159   0.000000   0.000000
     49         21.372939       21.380761   0.000000   0.000000
     50         21.575271       21.584596   0.000000   0.000000
     51         21.774819       21.778334   0.000000   0.000000
     52         22.126065       22.133284   0.000000   0.000000
     53         22.222658       22.237557   0.000000   0.000000
     54         22.365192       22.367478   0.000000   0.000000
     55         22.367378       22.369717   0.000000   0.000000
     56         22.549159       22.560411   0.000000   0.000000
     57         23.284453       23.290342   0.000000   0.000000
     58         23.838301       23.845840   0.000000   0.000000
     59         24.064368       24.071713   0.000000   0.000000
     60         24.298896       24.304789   0.000000   0.000000
     61         24.634734       24.640529   0.000000   0.000000
     62         25.725346       25.731265   0.000000   0.000000
     63         25.816006       25.823450   0.000000   0.000000
     64         25.975359       25.978625   0.000000   0.000000
 
  0.1842105E+00  0.0000000E+00  0.0000000E+00  0.1666667E-01
      1        -16.417222      -16.417223   1.000000   1.000000
      2        -15.168244      -15.168247   1.000000   1.000000
      3         -7.943748       -7.943746   1.000000   1.000000
      4         -6.084596       -6.084595   1.000000   1.000000
      5         -5.467259       -5.467260   1.000000   1.000000
      6         -4.389787       -4.389786   1.000000   1.000000
      7         -4.377239       -4.377239   1.000000   1.000000
      8         -3.594885       -3.594887   1.000000   1.000000
      9         -2.652977       -2.652975   1.000000   1.000000