PROCAR lm decomposed
# of k-points:   80         # of bands:   16         # of ions:    3

 k-point     1 :    0.00000000 0.00000000 0.00000000     weight = 0.01234568

band     1 # energy  -19.84742668 # occ.  2.00000000
 
ion      s     py     pz     px    dxy    dyz    dz2    dxz  x2-y2    tot
    1  0.144  0.000  0.000  0.000  0.000  0.000  0.001  0.000  0.000  0.145
    2  0.275  0.000  0.005  0.000  0.000  0.000  0.000  0.000  0.000  0.279
    3  0.275  0.000  0.005  0.000  0.000  0.000  0.000  0.000  0.000  0.279
tot    0.694  0.000  0.009  0.000  0.000  0.000  0.001  0.000  0.000  0.703
 
band     2 # energy  -18.49221541 # occ.  2.00000000
 
ion      s     py     pz     px    dxy    dyz    dz2    dxz  x2-y2    tot
    1  0.000  0.000  0.061  0.000  0.000  0.000  0.000  0.000  0.000  0.061
    2  0.313  0.000  0.000  0.000  0.000  0.000  0.000  0.000  0.000  0.313
    3  0.313  0.000  0.000  0.000  0.000  0.000  0.000  0.000  0.000  0.313
tot    0.626  0.000  0.062  0.000  0.000  0.000  0.000  0.000  0.000  0.687
 
band     3 # energy  -10.01237763 # occ.  2.00000000
 
ion      s     py     pz     px    dxy    dyz    dz2    dxz  x2-y2    tot
    1  0.159  0.000  0.000  0.000  0.000  0.000  0.197  0.000  0.000  0.355
    2  0.018  0.000  0.126  0.000  0.000  0.000  0.000  0.000  0.000  0.144
    3  0.018  0.000  0.126  0.000  0.000  0.000  0.000  0.000  0.000  0.144
tot    0.194  0.000  0.252  0.000  0.000  0.000  0.197  0.000  0.000  0.643
 
band     4 # energy   -6.27964692 # occ.  2.00000000
 
ion      s     py     pz     px    dxy    dyz    dz2    dxz  x2-y2    tot
    1  0.000  0.003  0.000  0.004  0.342  0.000  0.000  0.000  0.253  0.602
    2  0.000  0.049  0.000  0.067  0.000  0.000  0.000  0.000  0.000  0.116
    3  0.000  0.049  0.000  0.067  0.000  0.000  0.000  0.000  0.000  0.116
tot    0.000  0.102  0.000  0.138  0.342  0.000  0.000  0.000  0.253  0.835
 
band     5 # energy   -6.27964614 # occ.  2.00000000
 
ion      s     py     pz     px    dxy    dyz    dz2    dxz  x2-y2    tot
    1  0.000  0.004  0.000  0.003  0.253  0.000  0.000  0.000  0.342  0.602
    2  0.000  0.067  0.000  0.049  0.000  0.000  0.000  0.000  0.000  0.116
    3  0.000  0.067  0.000  0.049  0.000  0.000  0.000  0.000  0.000  0.116
tot    0.000  0.138  0.000  0.102  0.253  0.000  0.000  0.000  0.342  0.835
 
band     6 # energy   -5.59303294 # occ.  2.00000000
 
ion      s     py     pz     px    dxy    dyz    dz2    dxz  x2-y2    tot
    1  0.000  0.000  0.065  0.000  0.000  0.000  0.000  0.000  0.000  0.065
    2  0.000  0.000  0.246  0.000  0.000  0.000  0.000  0.000  0.000  0.246
    3  0.000  0.000  0.246  0.000  0.000  0.000  0.000  0.000  0.000  0.246
tot    0.000  0.000  0.557  0.000  0.000  0.000  0.000  0.000  0.000  0.557
 
band     7 # energy   -4.80922301 # occ.  2.00000000
 
ion      s     py     pz     px    dxy    dyz    dz2    dxz  x2-y2    tot
    1  0.000  0.000  0.000  0.000  0.000  0.385  0.000  0.136  0.000  0.521
    2  0.000  0.119  0.000  0.042  0.000  0.000  0.000  0.000  0.000  0.161
    3  0.000  0.119  0.000  0.042  0.000  0.000  0.000  0.000  0.000  0.161
tot    0.000  0.237  0.000  0.084  0.000  0.385  0.000  0.136  0.000  0.843
 
band     8 # energy   -4.80922039 # occ.  2.00000000
 
ion      s     py     pz     px    dxy    dyz    dz2    dxz  x2-y2    tot
    1  0.000  0.000  0.000  0.000  0.000  0.136  0.000  0.385  0.000  0.521
    2  0.000  0.042  0.000  0.119  0.000  0.000  0.000  0.000  0.000  0.161
    3  0.000  0.042  0.000  0.119  0.000  0.000  0.000  0.000  0.000  0.161
tot    0.000  0.084  0.000  0.237  0.000  0.136  0.000  0.385  0.000  0.843
 
band     9 # energy   -3.44975258 # occ.  2.00000000
 
ion      s     py     pz     px    dxy    dyz    dz2    dxz  x2-y2    tot
    1  0.013  0.000  0.000  0.000  0.000  0.000  0.613  0.000  0.000  0.626
    2  0.002  0.000  0.069  0.000  0.000  0.000  0.000  0.000  0.000  0.072
    3  0.002  0.000  0.069  0.000  0.000  0.000  0.000  0.000  0.000  0.072
tot    0.018  0.000  0.139  0.000  0.000  0.000  0.613  0.000  0.000  0.770
 
band    10 # energy    0.86335094 # occ.  0.00000000
 
ion      s     py     pz     px    dxy    dyz    dz2    dxz  x2-y2    tot
    1  0.000  0.000  0.000  0.000  0.000  0.247  0.000  0.135  0.000  0.382
    2  0.000  0.113  0.000  0.062  0.000  0.000  0.000  0.000  0.000  0.175
    3  0.000  0.113  0.000  0.062  0.000  0.000  0.000  0.000  0.000  0.175
tot    0.000  0.226  0.000  0.124  0.000  0.247  0.000  0.135  0.000  0.733
 
band    11 # energy    0.86335342 # occ.  0.00000000
 
ion      s     py     pz     px    dxy    dyz    dz2    dxz  x2-y2    tot
    1  0.000  0.000  0.000  0.000  0.000  0.135  0.000  0.247  0.000  0.382
    2  0.000  0.062  0.000  0.113  0.000  0.000  0.000  0.000  0.000  0.175
    3  0.000  0.062  0.000  0.113  0.000  0.000  0.000  0.000  0.000  0.175
tot    0.000  0.124  0.000  0.226  0.000  0.135  0.000  0.247  0.000  0.733
 
band    12 # energy    1.01560457 # occ.  0.00000000
 
ion      s     py     pz     px    dxy    dyz    dz2    dxz  x2-y2    tot
    1  0.000  0.008  0.000  0.011  0.184  0.000  0.000  0.000  0.124  0.328
    2  0.000  0.091  0.000  0.134  0.000  0.000  0.000  0.000  0.000  0.225
    3  0.000  0.091  0.000  0.134  0.000  0.000  0.000  0.000  0.000  0.225
tot    0.000  0.189  0.000  0.280  0.184  0.000  0.000  0.000  0.124  0.778
 
band    13 # energy    1.01560506 # occ.  0.00000000
 
ion      s     py     pz     px    dxy    dyz    dz2    dxz  x2-y2    tot
    1  0.000  0.011  0.000  0.008  0.124  0.000  0.000  0.000  0.184  0.328
    2  0.000  0.135  0.000  0.091  0.000  0.000  0.000  0.000  0.000  0.225
    3  0.000  0.134  0.000  0.091  0.000  0.000  0.000  0.000  0.000  0.225
tot    0.000  0.280  0.000  0.189  0.124  0.000  0.000  0.000  0.184  0.778
 
band    14 # energy    3.10971222 # occ.  0.00000000
 
ion      s     py     pz     px    dxy    dyz    dz2    dxz  x2-y2    tot
    1  0.015  0.000  0.000  0.000  0.000  0.000  0.014  0.000  0.000  0.029
    2  0.010  0.000  0.003  0.000  0.000  0.000  0.000  0.000  0.000  0.013
    3  0.010  0.000  0.003  0.000  0.000  0.000  0.000  0.000  0.000  0.013
tot    0.035  0.000  0.006  0.000  0.000  0.000  0.014  0.000  0.000  0.055
 
band    15 # energy    3.31616229 # occ.  0.00000000
 
ion      s     py     pz     px    dxy    dyz    dz2    dxz  x2-y2    tot
    1  0.000  0.000  0.002  0.000  0.000  0.000  0.000  0.000  0.000  0.002
    2  0.002  0.000  0.012  0.000  0.000  0.000  0.000  0.000  0.000  0.015
    3  0.002  0.000  0.012  0.000  0.000  0.000  0.000  0.000  0.000  0.014
tot    0.004  0.000  0.026  0.000  0.000  0.000  0.000  0.000  0.000  0.031
 
band    16 # energy    4.04391060 # occ.  0.00000000
 
ion      s     py     pz     px    dxy    dyz    dz2    dxz  x2-y2    tot
    1  0.065  0.000  0.000  0.000  0.000  0.000  0.010  0.000  0.000  0.075
    2  0.036  0.000  0.001  0.000  0.000  0.000  0.000  0.000  0.000  0.037
    3  0.036  0.000  0.001  0.000  0.000  0.000  0.000  0.000  0.000  0.037
tot    0.137  0.000  0.001  0.000  0.000  0.000  0.010  0.000  0.000  0.148
 

 k-point     2 :    0.11111111 0.00000000 0.00000000     weight = 0.07407407

band     1 # energy  -19.64063498 # occ.  2.00000000
 
ion      s     py     pz     px    dxy    dyz    dz2    dxz  x2-y2    tot
    1  0.134  0.001  0.000  0.004  0.002  0.000  0.001  0.000  0.001  0.142
    2  0.278  0.000  0.004  0.001  0.000  0.000  0.000  0.000  0.000  0.283
    3  0.278  0.000  0.004  0.001  0.000  0.000  0.000  0.000  0.000  0.283
tot    0.689  0.002  0.009  0.005  0.002  0.000  0.001  0.000  0.001  0.707
 
band     2 # energy  -18.38813039 # occ.  2.00000000
 
ion      s     py     pz     px    dxy    dyz    dz2    dxz  x2-y2    tot
    1  0.000  0.000  0.057  0.000  0.000  0.002  0.000  0.007  0.000  0.066
    2  0.314  0.000  0.000  0.000  0.000  0.000  0.000  0.000  0.000  0.315
    3  0.314  0.000  0.000  0.000  0.000  0.000  0.000  0.000  0.000  0.315
tot    0.627  0.000  0.057  0.001  0.000  0.002  0.000  0.007  0.000  0.695
 
band     3 # energy   -9.76073653 # occ.  2.00000000
 
ion      s     py     pz     px    dxy    dyz    dz2    dxz  x2-y2    tot
    1  0.140  0.003  0.000  0.008  0.008  0.000  0.185  0.000  0.003  0.347
    2  0.016  0.000  0.130  0.001  0.000  0.000  0.000  0.000  0.000  0.148
    3  0.016  0.000  0.130  0.001  0.000  0.000  0.000  0.000  0.000  0.148
tot    0.173  0.003  0.261  0.010  0.008  0.000  0.185  0.000  0.003  0.643
 
band     4 # energy   -6.75101057 # occ.  2.00000000
 
ion      s     py     pz     px    dxy    dyz    dz2    dxz  x2-y2    tot
    1  0.027  0.002  0.000  0.007  0.385  0.000  0.001  0.000  0.128  0.550
    2  0.006  0.030  0.000  0.089  0.000  0.000  0.000  0.000  0.000  0.124
    3  0.006  0.030  0.000  0.089  0.000  0.000  0.000  0.000  0.000  0.124
tot    0.039  0.061  0.001  0.184  0.385  0.000  0.001  0.000  0.128  0.799
 
band     5 # energy   -6.20719055 # occ.  2.00000000
 
ion      s     py     pz     px    dxy    dyz    dz2    dxz  x2-y2    tot
    1  0.000  0.000  0.014  0.000  0.000  0.066  0.000  0.197  0.000  0.277
    2  0.000  0.013  0.146  0.039  0.000  0.000  0.000  0.000  0.000  0.198
    3  0.000  0.013  0.146  0.039  0.000  0.000  0.000  0.000  0.000  0.198
tot    0.000  0.026  0.307  0.077  0.000  0.066  0.000  0.197  0.000  0.674
 
band     6 # energy   -6.04933165 # occ.  2.00000000
 
ion      s     py     pz     px    dxy    dyz    dz2    dxz  x2-y2    tot
    1  0.000  0.010  0.000  0.003  0.140  0.000  0.000  0.000  0.420  0.574
    2  0.000  0.095  0.000  0.032  0.000  0.000  0.000  0.000  0.000  0.126
    3  0.000  0.095  0.000  0.032  0.000  0.000  0.000  0.000  0.000  0.126
tot    0.000  0.199  0.000  0.066  0.140  0.000  0.000  0.000  0.420  0.826
 
band     7 # energy   -5.14961118 # occ.  2.00000000
 
ion      s     py     pz     px    dxy    dyz    dz2    dxz  x2-y2    tot
    1  0.000  0.000  0.000  0.000  0.000  0.380  0.000  0.127  0.000  0.507
    2  0.000  0.121  0.000  0.040  0.000  0.000  0.000  0.000  0.000  0.162
    3  0.000  0.121  0.000  0.040  0.000  0.000  0.000  0.000  0.000  0.162
tot    0.000  0.243  0.000  0.081  0.000  0.380  0.000  0.127  0.000  0.831
 
band     8 # energy   -4.61104869 # occ.  2.00000000
 
ion      s     py     pz     px    dxy    dyz    dz2    dxz  x2-y2    tot
    1  0.000  0.000  0.060  0.000  0.000  0.043  0.000  0.128  0.000  0.231
    2  0.001  0.033  0.097  0.099  0.000  0.000  0.000  0.000  0.000  0.231
    3  0.001  0.033  0.097  0.099  0.000  0.000  0.000  0.000  0.000  0.231
tot    0.003  0.066  0.255  0.199  0.000  0.043  0.000  0.128  0.000  0.693
 
band     9 # energy   -3.56028552 # occ.  2.00000000
 
ion      s     py     pz     px    dxy    dyz    dz2    dxz  x2-y2    tot
    1  0.015  0.000  0.000  0.001  0.022  0.000  0.589  0.000  0.007  0.635
    2  0.004  0.002  0.063  0.007  0.000  0.000  0.000  0.000  0.000  0.076
    3  0.004  0.002  0.063  0.007  0.000  0.000  0.000  0.000  0.000  0.076
tot    0.023  0.005  0.125  0.014  0.022  0.000  0.589  0.000  0.007  0.786
 
band    10 # energy    0.47775776 # occ.  0.00000000
 
ion      s     py     pz     px    dxy    dyz    dz2    dxz  x2-y2    tot
    1  0.003  0.003  0.000  0.010  0.238  0.000  0.032  0.000  0.079  0.367
    2  0.009  0.042  0.003  0.125  0.000  0.000  0.000  0.000  0.000  0.179
    3  0.009  0.042  0.003  0.125  0.000  0.000  0.000  0.000  0.000  0.179
tot    0.020  0.087  0.007  0.260  0.238  0.000  0.032  0.000  0.079  0.724
 
band    11 # energy    0.64310585 # occ.  0.00000000
 
ion      s     py     pz     px    dxy    dyz    dz2    dxz  x2-y2    tot
    1  0.000  0.000  0.001  0.000  0.000  0.113  0.000  0.340  0.000  0.454
    2  0.016  0.029  0.004  0.086  0.000  0.000  0.000  0.000  0.000  0.135
    3  0.016  0.029  0.004  0.086  0.000  0.000  0.000  0.000  0.000  0.135
tot    0.032  0.057  0.009  0.172  0.000  0.113  0.000  0.340  0.000  0.724
 
band    12 # energy    0.77625996 # occ.  0.00000000
 
ion      s     py     pz     px    dxy    dyz    dz2    dxz  x2-y2    tot
    1  0.000  0.014  0.000  0.005  0.086  0.000  0.000  0.000  0.258  0.363
    2  0.000  0.154  0.000  0.051  0.000  0.000  0.000  0.000  0.000  0.205
    3  0.000  0.154  0.000  0.051  0.000  0.000  0.000  0.000  0.000  0.205
tot    0.000  0.322  0.000  0.107  0.086  0.000  0.000  0.000  0.258  0.773
 
band    13 # energy    1.20474696 # occ.  0.00000000
 
ion      s     py     pz     px    dxy    dyz    dz2    dxz  x2-y2    tot
    1  0.000  0.000  0.000  0.000  0.000  0.306  0.000  0.102  0.000  0.409
    2  0.000  0.130  0.000  0.043  0.000  0.000  0.000  0.000  0.000  0.173
    3  0.000  0.130  0.000  0.043  0.000  0.000  0.000  0.000  0.000  0.173
tot    0.000  0.259  0.000  0.086  0.000  0.306  0.000  0.102  0.000  0.754
 
band    14 # energy    3.39369030 # occ.  0.00000000
 
ion      s     py     pz     px    dxy    dyz    dz2    dxz  x2-y2    tot
    1  0.008  0.000  0.000  0.001  0.003  0.000  0.015  0.000  0.001  0.028
    2  0.005  0.001  0.004  0.003  0.000  0.000  0.000  0.000  0.000  0.013
    3  0.005  0.001  0.004  0.003  0.000  0.000  0.000  0.000  0.000  0.013
tot    0.019  0.003  0.007  0.008  0.003  0.000  0.015  0.000  0.001  0.054
 
band    15 # energy    3.56985869 # occ.  0.00000000
 
ion      s     py     pz     px    dxy    dyz    dz2    dxz  x2-y2    tot
    1  0.000  0.000  0.001  0.000  0.000  0.001  0.000  0.002  0.000  0.004
    2  0.001  0.000  0.013  0.001  0.000  0.000  0.000  0.000  0.000  0.015
    3  0.001  0.000  0.013  0.000  0.000  0.000  0.000  0.000  0.000  0.015
tot    0.002  0.000  0.028  0.001  0.000  0.001  0.000  0.002  0.000  0.035
 
band    16 # energy    4.87742849 # occ.  0.00000000
 
ion      s     py     pz     px    dxy    dyz    dz2    dxz  x2-y2    tot
    1  0.080  0.001  0.000  0.005  0.002  0.000  0.013  0.000  0.000  0.102
    2  0.045  0.004  0.001  0.011  0.000  0.000  0.000  0.000  0.000  0.061
    3  0.035  0.003  0.011  0.010  0.000  0.000  0.000  0.000  0.000  0.059
tot    0.160  0.008  0.011  0.025  0.002  0.000  0.013  0.000  0.000  0.221
 

 k-point     3 :    0.22222222 0.00000000 0.00000000     weight = 0.07407407

band     1 # energy  -19.07278030 # occ.  2.00000000
 
ion      s     py     pz     px    dxy    dyz    dz2    dxz  x2-y2    tot
    1  0.105  0.005  0.000  0.014  0.007  0.000  0.001  0.000  0.002  0.134
    2  0.286  0.001  0.004  0.002  0.000  0.000  0.000  0.000  0.000  0.293
    3  0.286  0.001  0.004  0.002  0.000  0.000  0.000  0.000  0.000  0.293
tot    0.677  0.006  0.009  0.017  0.007  0.000  0.001  0.000  0.002  0.720
 
band     2 # energy  -18.10454579 # occ.  2.00000000
 
ion      s     py     pz     px    dxy    dyz    dz2    dxz  x2-y2    tot
    1  0.000  0.000  0.044  0.000  0.000  0.010  0.000  0.029  0.000  0.082
    2  0.317  0.000  0.001  0.001  0.000  0.000  0.000  0.000  0.000  0.319
    3  0.317  0.000  0.001  0.001  0.000  0.000  0.000  0.000  0.000  0.319
tot    0.633  0.001  0.045  0.002  0.000  0.010  0.000  0.029  0.000  0.719
 
band     3 # energy   -9.24770898 # occ.  2.00000000
 
ion      s     py     pz     px    dxy    dyz    dz2    dxz  x2-y2    tot
    1  0.067  0.007  0.000  0.021  0.088  0.000  0.140  0.000  0.029  0.352
    2  0.009  0.004  0.128  0.012  0.000  0.000  0.000  0.000  0.000  0.153
    3  0.009  0.004  0.128  0.012  0.000  0.000  0.000  0.000  0.000  0.153
tot    0.084  0.015  0.255  0.046  0.088  0.000  0.140  0.000  0.029  0.658
 
band     4 # energy   -7.66731845 # occ.  2.00000000
 
ion      s     py     pz     px    dxy    dyz    dz2    dxz  x2-y2    tot
    1  0.107  0.007  0.000  0.021  0.188  0.000  0.017  0.000  0.063  0.402
    2  0.021  0.029  0.017  0.088  0.000  0.000  0.000  0.000  0.000  0.155
    3  0.021  0.029  0.017  0.088  0.000  0.000  0.000  0.000  0.000  0.155
tot    0.150  0.065  0.033  0.196  0.188  0.000  0.017  0.000  0.063  0.712
 
band     5 # energy   -7.20850393 # occ.  2.00000000
 
ion      s     py     pz     px    dxy    dyz    dz2    dxz  x2-y2    tot
    1  0.000  0.000  0.003  0.000  0.000  0.081  0.000  0.244  0.000  0.328
    2  0.002  0.026  0.078  0.077  0.000  0.000  0.000  0.000  0.000  0.184
    3  0.002  0.026  0.078  0.077  0.000  0.000  0.000  0.000  0.000  0.184
tot    0.005  0.052  0.159  0.155  0.000  0.081  0.000  0.244  0.000  0.696
 
band     6 # energy   -5.85388133 # occ.  2.00000000
 
ion      s     py     pz     px    dxy    dyz    dz2    dxz  x2-y2    tot
    1  0.000  0.000  0.000  0.000  0.000  0.365  0.000  0.122  0.000  0.486
    2  0.000  0.123  0.000  0.041  0.000  0.000  0.000  0.000  0.000  0.164
    3  0.000  0.123  0.000  0.041  0.000  0.000  0.000  0.000  0.000  0.164
tot    0.000  0.247  0.000  0.082  0.000  0.365  0.000  0.122  0.000  0.815
 
band     7 # energy   -5.45459413 # occ.  2.00000000
 
ion      s     py     pz     px    dxy    dyz    dz2    dxz  x2-y2    tot
    1  0.000  0.024  0.000  0.008  0.112  0.000  0.000  0.000  0.336  0.480
    2  0.000  0.119  0.000  0.040  0.000  0.000  0.000  0.000  0.000  0.159
    3  0.000  0.119  0.000  0.040  0.000  0.000  0.000  0.000  0.000  0.159
tot    0.000  0.262  0.000  0.087  0.112  0.000  0.000  0.000  0.336  0.797
 
band     8 # energy   -4.89898608 # occ.  2.00000000
 
ion      s     py     pz     px    dxy    dyz    dz2    dxz  x2-y2    tot
    1  0.000  0.000  0.081  0.000  0.000  0.000  0.000  0.000  0.000  0.082
    2  0.008  0.027  0.153  0.080  0.000  0.000  0.000  0.000  0.000  0.267
    3  0.008  0.027  0.153  0.080  0.000  0.000  0.000  0.000  0.000  0.267
tot    0.015  0.053  0.387  0.160  0.000  0.000  0.000  0.000  0.000  0.616
 
band     9 # energy   -4.04755966 # occ.  2.00000000
 
ion      s     py     pz     px    dxy    dyz    dz2    dxz  x2-y2    tot
    1  0.015  0.002  0.000  0.005  0.120  0.000  0.475  0.000  0.040  0.656
    2  0.007  0.006  0.043  0.017  0.000  0.000  0.000  0.000  0.000  0.073
    3  0.007  0.006  0.043  0.017  0.000  0.000  0.000  0.000  0.000  0.073
tot    0.029  0.013  0.086  0.038  0.120  0.000  0.475  0.000  0.040  0.801
 
band    10 # energy   -0.05332300 # occ.  0.00000000
 
ion      s     py     pz     px    dxy    dyz    dz2    dxz  x2-y2    tot
    1  0.005  0.002  0.000  0.005  0.213  0.000  0.182  0.000  0.071  0.477
    2  0.008  0.022  0.014  0.067  0.000  0.000  0.000  0.000  0.000  0.111
    3  0.008  0.022  0.014  0.067  0.000  0.000  0.000  0.000  0.000  0.111
tot    0.020  0.046  0.029  0.138  0.213  0.000  0.182  0.000  0.071  0.698
 
band    11 # energy    0.32711421 # occ.  0.00000000
 
ion      s     py     pz     px    dxy    dyz    dz2    dxz  x2-y2    tot
    1  0.000  0.012  0.000  0.004  0.115  0.000  0.000  0.000  0.346  0.477
    2  0.000  0.116  0.000  0.038  0.000  0.000  0.000  0.000  0.000  0.154
    3  0.000  0.116  0.000  0.038  0.000  0.000  0.000  0.000  0.000  0.154
tot    0.000  0.243  0.000  0.081  0.115  0.000  0.000  0.000  0.346  0.786
 
band    12 # energy    0.82678490 # occ.  0.00000000
 
ion      s     py     pz     px    dxy    dyz    dz2    dxz  x2-y2    tot
    1  0.000  0.000  0.010  0.000  0.000  0.130  0.000  0.389  0.000  0.528
    2  0.029  0.011  0.023  0.032  0.000  0.000  0.000  0.000  0.000  0.094
    3  0.029  0.011  0.023  0.032  0.000  0.000  0.000  0.000  0.000  0.094
tot    0.057  0.021  0.056  0.064  0.000  0.130  0.000  0.389  0.000  0.717
 
band    13 # energy    1.84978556 # occ.  0.00000000
 
ion      s     py     pz     px    dxy    dyz    dz2    dxz  x2-y2    tot
    1  0.000  0.000  0.000  0.000  0.000  0.340  0.000  0.113  0.000  0.453
    2  0.000  0.125  0.000  0.042  0.000  0.000  0.000  0.000  0.000  0.166
    3  0.000  0.125  0.000  0.042  0.000  0.000  0.000  0.000  0.000  0.166
tot    0.000  0.249  0.000  0.083  0.000  0.340  0.000  0.113  0.000  0.786
 
band    14 # energy    4.10927838 # occ.  0.00000000
 
ion      s     py     pz     px    dxy    dyz    dz2    dxz  x2-y2    tot
    1  0.007  0.001  0.000  0.003  0.004  0.000  0.015  0.000  0.001  0.031
    2  0.004  0.001  0.003  0.003  0.000  0.000  0.000  0.000  0.000  0.012
    3  0.005  0.001  0.004  0.003  0.000  0.000  0.000  0.000  0.000  0.012
tot    0.016  0.003  0.007  0.009  0.004  0.000  0.015  0.000  0.001  0.055
 
band    15 # energy    4.29462459 # occ.  0.00000000
 
ion      s     py     pz     px    dxy    dyz    dz2    dxz  x2-y2    tot
    1  0.000  0.000  0.001  0.000  0.000  0.002  0.000  0.005  0.000  0.008
    2  0.000  0.000  0.016  0.001  0.000  0.000  0.000  0.000  0.000  0.017
    3  0.000  0.000  0.016  0.001  0.000  0.000  0.000  0.000  0.000  0.017
tot    0.001  0.000  0.032  0.001  0.000  0.002  0.000  0.005  0.000  0.042
 
band    16 # energy    4.96419558 # occ.  0.00000000
 
ion      s     py     pz     px    dxy    dyz    dz2    dxz  x2-y2    tot
    1  0.009  0.001  0.000  0.003  0.003  0.000  0.012  0.000  0.001  0.029
    2  0.006  0.001  0.002  0.003  0.000  0.000  0.000  0.000  0.000  0.011
    3  0.006  0.001  0.002  0.003  0.000  0.000  0.000  0.000  0.000  0.011
tot    0.021  0.003  0.004  0.008  0.003  0.000  0.012  0.000  0.001  0.051
 

 k-point     4 :    0.33333333 0.00000000 0.00000000     weight = 0.07407407

band     1 # energy  -18.31897640 # occ.  2.00000000
 
ion      s     py     pz     px    dxy    dyz    dz2    dxz  x2-y2    tot
    1  0.065  0.009  0.000  0.026  0.020  0.000  0.001  0.000  0.007  0.126
    2  0.301  0.001  0.005  0.002  0.000  0.000  0.000  0.000  0.000  0.308
    3  0.301  0.001  0.005  0.002  0.000  0.000  0.000  0.000  0.000  0.308
tot    0.666  0.010  0.009  0.030  0.020  0.000  0.001  0.000  0.007  0.743
 
band     2 # energy  -17.73745155 # occ.  2.00000000
 
ion      s     py     pz     px    dxy    dyz    dz2    dxz  x2-y2    tot
    1  0.000  0.000  0.025  0.000  0.000  0.020  0.000  0.059  0.000  0.104
    2  0.322  0.000  0.002  0.001  0.000  0.000  0.000  0.000  0.000  0.325
    3  0.322  0.000  0.002  0.001  0.000  0.000  0.000  0.000  0.000  0.325
tot    0.643  0.001  0.028  0.002  0.000  0.020  0.000  0.059  0.000  0.753
 
band     3 # energy   -9.47180653 # occ.  2.00000000
 
ion      s     py     pz     px    dxy    dyz    dz2    dxz  x2-y2    tot
    1  0.052  0.005  0.000  0.014  0.188  0.000  0.048  0.000  0.063  0.369
    2  0.006  0.026  0.041  0.078  0.000  0.000  0.000  0.000  0.000  0.150
    3  0.006  0.026  0.041  0.078  0.000  0.000  0.000  0.000  0.000  0.150
tot    0.063  0.057  0.081  0.170  0.188  0.000  0.048  0.000  0.063  0.669
 
band     4 # energy   -8.23509857 # occ.  2.00000000
 
ion      s     py     pz     px    dxy    dyz    dz2    dxz  x2-y2    tot
    1  0.000  0.000  0.032  0.000  0.000  0.059  0.000  0.176  0.000  0.267
    2  0.007  0.037  0.034  0.111  0.000  0.000  0.000  0.000  0.000  0.190
    3  0.007  0.037  0.034  0.111  0.000  0.000  0.000  0.000  0.000  0.190
tot    0.015  0.074  0.099  0.223  0.000  0.059  0.000  0.176  0.000  0.646
 
band     5 # energy   -8.00527019 # occ.  2.00000000
 
ion      s     py     pz     px    dxy    dyz    dz2    dxz  x2-y2    tot
    1  0.101  0.016  0.000  0.047  0.011  0.000  0.086  0.000  0.004  0.264
    2  0.028  0.013  0.112  0.040  0.000  0.000  0.000  0.000  0.000  0.193
    3  0.028  0.013  0.112  0.040  0.000  0.000  0.000  0.000  0.000  0.193
tot    0.156  0.042  0.224  0.126  0.011  0.000  0.086  0.000  0.004  0.649
 
band     6 # energy   -6.49221694 # occ.  2.00000000
 
ion      s     py     pz     px    dxy    dyz    dz2    dxz  x2-y2    tot
    1  0.000  0.000  0.000  0.000  0.000  0.356  0.000  0.119  0.000  0.474
    2  0.000  0.125  0.000  0.042  0.000  0.000  0.000  0.000  0.000  0.166
    3  0.000  0.125  0.000  0.042  0.000  0.000  0.000  0.000  0.000  0.166
tot    0.000  0.250  0.000  0.083  0.000  0.356  0.000  0.119  0.000  0.807
 
band     7 # energy   -5.41463300 # occ.  2.00000000
 
ion      s     py     pz     px    dxy    dyz    dz2    dxz  x2-y2    tot
    1  0.000  0.000  0.055  0.000  0.000  0.018  0.000  0.053  0.000  0.126
    2  0.011  0.015  0.184  0.045  0.000  0.000  0.000  0.000  0.000  0.255
    3  0.011  0.015  0.184  0.045  0.000  0.000  0.000  0.000  0.000  0.255
tot    0.022  0.030  0.424  0.089  0.000  0.018  0.000  0.053  0.000  0.635
 
band     8 # energy   -4.78406279 # occ.  2.00000000
 
ion      s     py     pz     px    dxy    dyz    dz2    dxz  x2-y2    tot
    1  0.000  0.042  0.000  0.014  0.066  0.000  0.000  0.000  0.198  0.319
    2  0.000  0.160  0.000  0.053  0.000  0.000  0.000  0.000  0.000  0.214
    3  0.000  0.160  0.000  0.053  0.000  0.000  0.000  0.000  0.000  0.214
tot    0.000  0.362  0.000  0.121  0.066  0.000  0.000  0.000  0.198  0.747
 
band     9 # energy   -4.47090017 # occ.  2.00000000
 
ion      s     py     pz     px    dxy    dyz    dz2    dxz  x2-y2    tot
    1  0.020  0.009  0.000  0.028  0.187  0.000  0.343  0.000  0.062  0.650
    2  0.005  0.003  0.040  0.009  0.000  0.000  0.000  0.000  0.000  0.057
    3  0.005  0.003  0.040  0.009  0.000  0.000  0.000  0.000  0.000  0.057
tot    0.029  0.015  0.081  0.046  0.187  0.000  0.343  0.000  0.062  0.764
 
band    10 # energy    0.08594882 # occ.  0.00000000
 
ion      s     py     pz     px    dxy    dyz    dz2    dxz  x2-y2    tot
    1  0.000  0.007  0.000  0.002  0.167  0.000  0.000  0.000  0.502  0.678
    2  0.000  0.063  0.000  0.021  0.000  0.000  0.000  0.000  0.000  0.084
    3  0.000  0.063  0.000  0.021  0.000  0.000  0.000  0.000  0.000  0.084
tot    0.000  0.134  0.000  0.044  0.167  0.000  0.000  0.000  0.502  0.846
 
band    11 # energy    0.13393374 # occ.  0.00000000
 
ion      s     py     pz     px    dxy    dyz    dz2    dxz  x2-y2    tot
    1  0.011  0.001  0.000  0.003  0.183  0.000  0.364  0.000  0.061  0.623
    2  0.004  0.012  0.016  0.036  0.000  0.000  0.000  0.000  0.000  0.068
    3  0.004  0.012  0.016  0.036  0.000  0.000  0.000  0.000  0.000  0.068
tot    0.019  0.025  0.033  0.074  0.183  0.000  0.364  0.000  0.061  0.758
 
band    12 # energy    1.54075238 # occ.  0.00000000
 
ion      s     py     pz     px    dxy    dyz    dz2    dxz  x2-y2    tot
    1  0.000  0.000  0.016  0.000  0.000  0.119  0.000  0.358  0.000  0.493
    2  0.030  0.004  0.048  0.013  0.000  0.000  0.000  0.000  0.000  0.096
    3  0.030  0.004  0.048  0.013  0.000  0.000  0.000  0.000  0.000  0.096
tot    0.061  0.009  0.113  0.026  0.000  0.119  0.000  0.358  0.000  0.685
 
band    13 # energy    2.32031080 # occ.  0.00000000
 
ion      s     py     pz     px    dxy    dyz    dz2    dxz  x2-y2    tot
    1  0.000  0.000  0.000  0.000  0.000  0.360  0.000  0.120  0.000  0.480
    2  0.000  0.118  0.000  0.039  0.000  0.000  0.000  0.000  0.000  0.157
    3  0.000  0.118  0.000  0.039  0.000  0.000  0.000  0.000  0.000  0.157
tot    0.000  0.236  0.000  0.079  0.000  0.360  0.000  0.120  0.000  0.795
 
band    14 # energy    5.13870718 # occ.  0.00000000
 
ion      s     py     pz     px    dxy    dyz    dz2    dxz  x2-y2    tot
    1  0.010  0.004  0.000  0.013  0.010  0.000  0.014  0.000  0.003  0.055
    2  0.009  0.001  0.003  0.002  0.000  0.000  0.000  0.000  0.000  0.015
    3  0.009  0.001  0.003  0.002  0.000  0.000  0.000  0.000  0.000  0.015
tot    0.028  0.006  0.006  0.018  0.010  0.000  0.014  0.000  0.003  0.086
 
band    15 # energy    5.36838811 # occ.  0.00000000
 
ion      s     py     pz     px    dxy    dyz    dz2    dxz  x2-y2    tot
    1  0.000  0.000  0.003  0.000  0.000  0.001  0.000  0.004  0.000  0.008
    2  0.000  0.000  0.016  0.001  0.000  0.000  0.000  0.000  0.000  0.017
    3  0.000  0.000  0.016  0.001  0.000  0.000  0.000  0.000  0.000  0.017
tot    0.000  0.001  0.034  0.002  0.000  0.001  0.000  0.004  0.000  0.042
 
band    16 # energy    6.29968064 # occ.  0.00000000
 
ion      s     py     pz     px    dxy    dyz    dz2    dxz  x2-y2    tot
    1  0.253  0.006  0.000  0.019  0.026  0.000  0.017  0.000  0.009  0.331
    2  0.008  0.001  0.031  0.003  0.000  0.000  0.000  0.000  0.000  0.042
    3  0.007  0.001  0.030  0.003  0.000  0.000  0.000  0.000  0.000  0.041
tot    0.268  0.008  0.061  0.025  0.026  0.000  0.017  0.000  0.009  0.413
 

 k-point     5 :    0.44444444 0.00000000 0.00000000     weight = 0.07407407

band     1 # energy  -17.72844622 # occ.  2.00000000
 
ion      s     py     pz     px    dxy    dyz    dz2    dxz  x2-y2    tot
    1  0.028  0.012  0.000  0.035  0.035  0.000  0.001  0.000  0.012  0.122
    2  0.317  0.000  0.005  0.001  0.000  0.000  0.000  0.000  0.000  0.323
    3  0.317  0.000  0.005  0.001  0.000  0.000  0.000  0.000  0.000  0.323
tot    0.663  0.012  0.010  0.036  0.035  0.000  0.001  0.000  0.012  0.768
 
band     2 # energy  -17.46278597 # occ.  2.00000000
 
ion      s     py     pz     px    dxy    dyz    dz2    dxz  x2-y2    tot
    1  0.000  0.000  0.009  0.000  0.000  0.028  0.000  0.085  0.000  0.122
    2  0.327  0.000  0.002  0.000  0.000  0.000  0.000  0.000  0.000  0.330
    3  0.327  0.000  0.002  0.000  0.000  0.000  0.000  0.000  0.000  0.330
tot    0.654  0.000  0.013  0.001  0.000  0.028  0.000  0.085  0.000  0.782
 
band     3 # energy  -10.08337510 # occ.  2.00000000
 
ion      s     py     pz     px    dxy    dyz    dz2    dxz  x2-y2    tot
    1  0.125  0.006  0.000  0.018  0.081  0.000  0.030  0.000  0.027  0.286
    2  0.006  0.037  0.008  0.111  0.000  0.000  0.000  0.000  0.000  0.163
    3  0.006  0.037  0.008  0.111  0.000  0.000  0.000  0.000  0.000  0.163
tot    0.138  0.080  0.017  0.240  0.081  0.000  0.030  0.000  0.027  0.612
 
band     4 # energy   -8.92901263 # occ.  2.00000000
 
ion      s     py     pz     px    dxy    dyz    dz2    dxz  x2-y2    tot
    1  0.000  0.000  0.062  0.000  0.000  0.036  0.000  0.109  0.000  0.208
    2  0.010  0.042  0.015  0.127  0.000  0.000  0.000  0.000  0.000  0.194
    3  0.010  0.042  0.015  0.127  0.000  0.000  0.000  0.000  0.000  0.194