   3   3   1   0
  0.5740403E+02  0.3153200E-09  0.3153200E-09  0.2000000E-08  0.5000000E-15
  1.000000000000000E-004
  CAR 
 anon                                    
     28.92666262    -19.13563667 2000     -1.87259277      1.00000000
    -19.136  0.0000E+00  0.0000E+00
    -19.112  0.0000E+00  0.0000E+00
    -19.088  0.0000E+00  0.0000E+00
    -19.064  0.0000E+00  0.0000E+00
    -19.039  0.0000E+00  0.0000E+00
    -19.015  0.0000E+00  0.0000E+00
    -18.991  0.0000E+00  0.0000E+00
    -18.967  0.0000E+00  0.0000E+00
    -18.943  0.0000E+00  0.0000E+00
    -18.919  0.0000E+00  0.0000E+00
    -18.895  0.0000E+00  0.0000E+00
    -18.871  0.0000E+00  0.0000E+00
    -18.847  0.0000E+00  0.0000E+00
    -18.823  0.0000E+00  0.0000E+00
    -18.799  0.0000E+00  0.0000E+00
    -18.775  0.0000E+00  0.0000E+00
    -18.751  0.0000E+00  0.0000E+00
    -18.727  0.0000E+00  0.0000E+00
    -18.703  0.0000E+00  0.0000E+00
    -18.679  0.0000E+00  0.0000E+00
    -18.655  0.0000E+00  0.0000E+00
    -18.631  0.0000E+00  0.0000E+00
    -18.607  0.0000E+00  0.0000E+00
    -18.583  0.0000E+00  0.0000E+00
    -18.559  0.0000E+00  0.0000E+00
    -18.535  0.0000E+00  0.0000E+00
    -18.511  0.0000E+00  0.0000E+00
    -18.486  0.0000E+00  0.0000E+00
    -18.462  0.0000E+00  0.0000E+00
    -18.438  0.0000E+00  0.0000E+00
    -18.414  0.0000E+00  0.0000E+00
    -18.390  0.0000E+00  0.0000E+00
    -18.366  0.0000E+00  0.0000E+00
    -18.342  0.0000E+00  0.0000E+00
    -18.318  0.0000E+00  0.0000E+00
    -18.294  0.0000E+00  0.0000E+00
    -18.270  0.0000E+00  0.0000E+00
    -18.246  0.0000E+00  0.0000E+00
    -18.222  0.0000E+00  0.0000E+00
    -18.198  0.0000E+00  0.0000E+00
    -18.174  0.0000E+00  0.0000E+00
    -18.150  0.0000E+00  0.0000E+00
    -18.126  0.0000E+00  0.0000E+00
    -18.102  0.0000E+00  0.0000E+00
    -18.078  0.0000E+00  0.0000E+00
    -18.054  0.0000E+00  0.0000E+00
    -18.030  0.0000E+00  0.0000E+00
    -18.006  0.0000E+00  0.0000E+00
    -17.982  0.0000E+00  0.0000E+00
    -17.958  0.0000E+00  0.0000E+00
    -17.933  0.0000E+00  0.0000E+00
    -17.909  0.0000E+00  0.0000E+00
    -17.885  0.0000E+00  0.0000E+00
    -17.861  0.0000E+00  0.0000E+00
    -17.837  0.0000E+00  0.0000E+00
    -17.813  0.0000E+00  0.0000E+00
    -17.789  0.0000E+00  0.0000E+00
    -17.765  0.0000E+00  0.0000E+00
    -17.741  0.0000E+00  0.0000E+00
    -17.717  0.0000E+00  0.0000E+00
    -17.693  0.0000E+00  0.0000E+00
    -17.669  0.0000E+00  0.0000E+00
    -17.645  0.0000E+00  0.0000E+00
    -17.621  0.0000E+00  0.0000E+00
    -17.597  0.0000E+00  0.0000E+00
    -17.573  0.0000E+00  0.0000E+00
    -17.549  0.0000E+00  0.0000E+00
    -17.525  0.0000E+00  0.0000E+00
    -17.501  0.0000E+00  0.0000E+00
    -17.477  0.0000E+00  0.0000E+00
    -17.453  0.0000E+00  0.0000E+00
    -17.429  0.0000E+00  0.0000E+00
    -17.405  0.0000E+00  0.0000E+00
    -17.380  0.0000E+00  0.0000E+00
    -17.356  0.0000E+00  0.0000E+00
    -17.332  0.0000E+00  0.0000E+00
    -17.308  0.0000E+00  0.0000E+00
    -17.284  0.0000E+00  0.0000E+00
    -17.260  0.0000E+00  0.0000E+00
    -17.236  0.9235E-15  0.2220E-16
    -17.212  0.2182E-12  0.5268E-14
    -17.188  0.2923E-10  0.7080E-12
    -17.164  0.2495E-08  0.6069E-10
    -17.140  0.1359E-06  0.3328E-08
    -17.116  0.4734E-05  0.1171E-06
    -17.092  0.1057E-03  0.2659E-05
    -17.068  0.1518E-02  0.3917E-04
    -17.044  0.1407E-01  0.3775E-03
    -17.020  0.8456E-01  0.2411E-02
    -16.996  0.3317E+00  0.1038E-01
    -16.972  0.8592E+00  0.3104E-01
    -16.948  0.1503E+01  0.6718E-01
    -16.924  0.1853E+01  0.1117E+00
    -16.900  0.1735E+01  0.1534E+00
    -16.876  0.1388E+01  0.1868E+00
    -16.852  0.1097E+01  0.2132E+00
    -16.827  0.9397E+00  0.2358E+00
    -16.803  0.8474E+00  0.2562E+00
    -16.779  0.7588E+00  0.2744E+00
    -16.755  0.6746E+00  0.2906E+00
    -16.731  0.6345E+00  0.3059E+00
    -16.707  0.6588E+00  0.3217E+00
    -16.683  0.6769E+00  0.3380E+00
    -16.659  0.5971E+00  0.3524E+00
    -16.635  0.4563E+00  0.3633E+00
    -16.611  0.4139E+00  0.3733E+00
    -16.587  0.5408E+00  0.3863E+00
    -16.563  0.6803E+00  0.4026E+00
    -16.539  0.6326E+00  0.4178E+00
    -16.515  0.4173E+00  0.4279E+00
    -16.491  0.2400E+00  0.4337E+00
    -16.467  0.2707E+00  0.4402E+00
    -16.443  0.5014E+00  0.4522E+00
    -16.419  0.7133E+00  0.4694E+00
    -16.395  0.6669E+00  0.4854E+00
    -16.371  0.4059E+00  0.4952E+00
    -16.347  0.1771E+00  0.4994E+00
    -16.323  0.1320E+00  0.5026E+00
    -16.299  0.2880E+00  0.5095E+00
    -16.274  0.5593E+00  0.5230E+00
    -16.250  0.7223E+00  0.5403E+00
    -16.226  0.6092E+00  0.5550E+00
    -16.202  0.3380E+00  0.5631E+00
    -16.178  0.1418E+00  0.5665E+00
    -16.154  0.1178E+00  0.5693E+00
    -16.130  0.2473E+00  0.5753E+00
    -16.106  0.4513E+00  0.5861E+00
    -16.082  0.6004E+00  0.6006E+00
    -16.058  0.5939E+00  0.6149E+00
    -16.034  0.4380E+00  0.6254E+00
    -16.010  0.2452E+00  0.6313E+00
    -15.986  0.1528E+00  0.6350E+00
    -15.962  0.2117E+00  0.6400E+00
    -15.938  0.3454E+00  0.6484E+00
    -15.914  0.4259E+00  0.6586E+00
    -15.890  0.4336E+00  0.6690E+00
    -15.866  0.4354E+00  0.6795E+00
    -15.842  0.4089E+00  0.6893E+00
    -15.818  0.3202E+00  0.6970E+00
    -15.794  0.2662E+00  0.7034E+00
    -15.770  0.3199E+00  0.7111E+00
    -15.746  0.3789E+00  0.7202E+00
    -15.722  0.3311E+00  0.7282E+00
    -15.697  0.2495E+00  0.7342E+00
    -15.673  0.2707E+00  0.7407E+00
    -15.649  0.3762E+00  0.7497E+00
    -15.625  0.4450E+00  0.7604E+00
    -15.601  0.4552E+00  0.7714E+00
    -15.577  0.4475E+00  0.7821E+00
    -15.553  0.3808E+00  0.7913E+00
    -15.529  0.2403E+00  0.7971E+00
    -15.505  0.1294E+00  0.8002E+00
    -15.481  0.1668E+00  0.8042E+00
    -15.457  0.4513E+00  0.8150E+00
    -15.433  0.1081E+01  0.8410E+00
    -15.409  0.2010E+01  0.8893E+00
    -15.385  0.2840E+01  0.9576E+00
    -15.361  0.3061E+01  0.1031E+01
    -15.337  0.2665E+01  0.1095E+01
    -15.313  0.2122E+01  0.1146E+01
    -15.289  0.1805E+01  0.1190E+01
    -15.265  0.1790E+01  0.1233E+01
    -15.241  0.1929E+01  0.1279E+01
    -15.217  0.1933E+01  0.1326E+01
    -15.193  0.1680E+01  0.1366E+01
    -15.169  0.1360E+01  0.1399E+01
    -15.144  0.1168E+01  0.1427E+01
    -15.120  0.1180E+01  0.1455E+01
    -15.096  0.1333E+01  0.1487E+01
    -15.072  0.1445E+01  0.1522E+01
    -15.048  0.1474E+01  0.1557E+01
    -15.024  0.1457E+01  0.1592E+01
    -15.000  0.1376E+01  0.1625E+01
    -14.976  0.1305E+01  0.1657E+01
    -14.952  0.1297E+01  0.1688E+01
    -14.928  0.1273E+01  0.1719E+01
    -14.904  0.1280E+01  0.1749E+01
    -14.880  0.1459E+01  0.1785E+01
    -14.856  0.1772E+01  0.1827E+01
    -14.832  0.2129E+01  0.1878E+01
    -14.808  0.2651E+01  0.1942E+01
    -14.784  0.3365E+01  0.2023E+01
    -14.760  0.3847E+01  0.2115E+01
    -14.736  0.3756E+01  0.2206E+01
    -14.712  0.3344E+01  0.2286E+01
    -14.688  0.2978E+01  0.2358E+01
    -14.664  0.2728E+01  0.2423E+01
    -14.640  0.2626E+01  0.2486E+01
    -14.616  0.2768E+01  0.2553E+01
    -14.591  0.3163E+01  0.2629E+01
    -14.567  0.3859E+01  0.2722E+01
    -14.543  0.4991E+01  0.2842E+01
    -14.519  0.6245E+01  0.2992E+01
    -14.495  0.6901E+01  0.3158E+01
    -14.471  0.6667E+01  0.3318E+01
    -14.447  0.5774E+01  0.3457E+01
    -14.423  0.4711E+01  0.3570E+01
    -14.399  0.4083E+01  0.3668E+01
    -14.375  0.4029E+01  0.3765E+01
    -14.351  0.3924E+01  0.3860E+01
    -14.327  0.3112E+01  0.3935E+01
    -14.303  0.1792E+01  0.3978E+01
    -14.279  0.7086E+00  0.3995E+01
    -14.255  0.1870E+00  0.3999E+01
    -14.231  0.3240E-01  0.4000E+01
    -14.207  0.3654E-02  0.4000E+01
    -14.183  0.2663E-03  0.4000E+01
    -14.159  0.1249E-04  0.4000E+01
    -14.135  0.3758E-06  0.4000E+01
    -14.111  0.7231E-08  0.4000E+01
    -14.087  0.8878E-10  0.4000E+01
    -14.063  0.6940E-12  0.4000E+01
    -14.038  0.3540E-14  0.4000E+01
    -14.014  0.0000E+00  0.4000E+01
    -13.990  0.0000E+00  0.4000E+01
    -13.966  0.0000E+00  0.4000E+01
    -13.942  0.0000E+00  0.4000E+01
    -13.918  0.0000E+00  0.4000E+01
    -13.894  0.0000E+00  0.4000E+01
    -13.870  0.0000E+00  0.4000E+01
    -13.846  0.0000E+00  0.4000E+01
    -13.822  0.0000E+00  0.4000E+01
    -13.798  0.0000E+00  0.4000E+01
    -13.774  0.0000E+00  0.4000E+01
    -13.750  0.0000E+00  0.4000E+01
    -13.726  0.0000E+00  0.4000E+01
    -13.702  0.0000E+00  0.4000E+01
    -13.678  0.0000E+00  0.4000E+01
    -13.654  0.0000E+00  0.4000E+01
    -13.630  0.0000E+00  0.4000E+01
    -13.606  0.0000E+00  0.4000E+01
    -13.582  0.0000E+00  0.4000E+01
    -13.558  0.0000E+00  0.4000E+01
    -13.534  0.0000E+00  0.4000E+01
    -13.510  0.0000E+00  0.4000E+01
    -13.485  0.0000E+00  0.4000E+01
    -13.461  0.0000E+00  0.4000E+01
    -13.437  0.0000E+00  0.4000E+01
    -13.413  0.0000E+00  0.4000E+01
    -13.389  0.0000E+00  0.4000E+01
    -13.365  0.0000E+00  0.4000E+01
    -13.341  0.0000E+00  0.4000E+01
    -13.317  0.0000E+00  0.4000E+01
    -13.293  0.0000E+00  0.4000E+01
    -13.269  0.0000E+00  0.4000E+01
    -13.245  0.0000E+00  0.4000E+01
    -13.221  0.0000E+00  0.4000E+01
    -13.197  0.0000E+00  0.4000E+01
    -13.173  0.0000E+00  0.4000E+01
    -13.149  0.0000E+00  0.4000E+01
    -13.125  0.0000E+00  0.4000E+01
    -13.101  0.0000E+00  0.4000E+01
    -13.077  0.0000E+00  0.4000E+01
    -13.053  0.0000E+00  0.4000E+01
    -13.029  0.0000E+00  0.4000E+01
    -13.005  0.0000E+00  0.4000E+01
    -12.981  0.0000E+00  0.4000E+01
    -12.957  0.0000E+00  0.4000E+01
    -12.932  0.0000E+00  0.4000E+01
    -12.908  0.0000E+00  0.4000E+01
    -12.884  0.0000E+00  0.4000E+01
    -12.860  0.0000E+00  0.4000E+01
    -12.836  0.0000E+00  0.4000E+01
    -12.812  0.0000E+00  0.4000E+01
    -12.788  0.0000E+00  0.4000E+01
    -12.764  0.0000E+00  0.4000E+01
    -12.740  0.0000E+00  0.4000E+01
    -12.716  0.0000E+00  0.4000E+01
    -12.692  0.0000E+00  0.4000E+01
    -12.668  0.0000E+00  0.4000E+01
    -12.644  0.0000E+00  0.4000E+01
    -12.620  0.0000E+00  0.4000E+01
    -12.596  0.0000E+00  0.4000E+01
    -12.572  0.0000E+00  0.4000E+01
    -12.548  0.0000E+00  0.4000E+01
    -12.524  0.0000E+00  0.4000E+01
    -12.500  0.0000E+00  0.4000E+01
    -12.476  0.0000E+00  0.4000E+01
    -12.452  0.0000E+00  0.4000E+01
    -12.428  0.0000E+00  0.4000E+01
    -12.404  0.0000E+00  0.4000E+01
    -12.380  0.0000E+00  0.4000E+01
    -12.355  0.0000E+00  0.4000E+01
    -12.331  0.0000E+00  0.4000E+01
    -12.307  0.0000E+00  0.4000E+01
    -12.283  0.0000E+00  0.4000E+01
    -12.259  0.0000E+00  0.4000E+01
    -12.235  0.0000E+00  0.4000E+01
    -12.211  0.0000E+00  0.4000E+01
    -12.187  0.0000E+00  0.4000E+01
    -12.163  0.0000E+00  0.4000E+01
    -12.139  0.0000E+00  0.4000E+01
    -12.115  0.0000E+00  0.4000E+01
    -12.091  0.0000E+00  0.4000E+01
    -12.067  0.0000E+00  0.4000E+01
    -12.043  0.0000E+00  0.4000E+01
    -12.019  0.0000E+00  0.4000E+01
    -11.995  0.0000E+00  0.4000E+01
    -11.971  0.0000E+00  0.4000E+01
    -11.947  0.0000E+00  0.4000E+01
    -11.923  0.0000E+00  0.4000E+01
    -11.899  0.0000E+00  0.4000E+01
    -11.875  0.0000E+00  0.4000E+01
    -11.851  0.0000E+00  0.4000E+01
    -11.827  0.0000E+00  0.4000E+01
    -11.802  0.0000E+00  0.4000E+01
    -11.778  0.0000E+00  0.4000E+01
    -11.754  0.0000E+00  0.4000E+01
    -11.730  0.0000E+00  0.4000E+01
    -11.706  0.0000E+00  0.4000E+01
    -11.682  0.0000E+00  0.4000E+01
    -11.658  0.0000E+00  0.4000E+01
    -11.634  0.0000E+00  0.4000E+01
    -11.610  0.0000E+00  0.4000E+01
    -11.586  0.0000E+00  0.4000E+01
    -11.562  0.0000E+00  0.4000E+01
    -11.538  0.0000E+00  0.4000E+01
    -11.514  0.0000E+00  0.4000E+01
    -11.490  0.0000E+00  0.4000E+01
    -11.466  0.0000E+00  0.4000E+01
    -11.442  0.0000E+00  0.4000E+01
    -11.418  0.0000E+00  0.4000E+01
    -11.394  0.0000E+00  0.4000E+01
    -11.370  0.0000E+00  0.4000E+01
    -11.346  0.0000E+00  0.4000E+01
    -11.322  0.0000E+00  0.4000E+01
    -11.298  0.0000E+00  0.4000E+01
    -11.274  0.0000E+00  0.4000E+01
    -11.249  0.0000E+00  0.4000E+01
    -11.225  0.0000E+00  0.4000E+01
    -11.201  0.0000E+00  0.4000E+01
    -11.177  0.0000E+00  0.4000E+01
    -11.153  0.0000E+00  0.4000E+01
    -11.129  0.0000E+00  0.4000E+01
    -11.105  0.0000E+00  0.4000E+01
    -11.081  0.0000E+00  0.4000E+01
    -11.057  0.0000E+00  0.4000E+01
    -11.033  0.0000E+00  0.4000E+01
    -11.009  0.0000E+00  0.4000E+01
    -10.985  0.0000E+00  0.4000E+01
    -10.961  0.0000E+00  0.4000E+01
    -10.937  0.0000E+00  0.4000E+01
    -10.913  0.0000E+00  0.4000E+01
    -10.889  0.0000E+00  0.4000E+01
    -10.865  0.0000E+00  0.4000E+01
    -10.841  0.0000E+00  0.4000E+01
    -10.817  0.0000E+00  0.4000E+01
    -10.793  0.0000E+00  0.4000E+01
    -10.769  0.0000E+00  0.4000E+01
    -10.745  0.0000E+00  0.4000E+01
    -10.721  0.0000E+00  0.4000E+01
    -10.696  0.0000E+00  0.4000E+01
    -10.672  0.0000E+00  0.4000E+01
    -10.648  0.0000E+00  0.4000E+01
    -10.624  0.0000E+00  0.4000E+01
    -10.600  0.0000E+00  0.4000E+01
    -10.576  0.0000E+00  0.4000E+01
    -10.552  0.0000E+00  0.4000E+01
    -10.528  0.0000E+00  0.4000E+01
    -10.504  0.0000E+00  0.4000E+01
    -10.480  0.0000E+00  0.4000E+01
    -10.456  0.0000E+00  0.4000E+01
    -10.432  0.0000E+00  0.4000E+01
    -10.408  0.0000E+00  0.4000E+01
    -10.384  0.0000E+00  0.4000E+01
    -10.360  0.0000E+00  0.4000E+01
    -10.336  0.0000E+00  0.4000E+01
    -10.312  0.0000E+00  0.4000E+01
    -10.288  0.0000E+00  0.4000E+01
    -10.264  0.0000E+00  0.4000E+01
    -10.240  0.0000E+00  0.4000E+01
    -10.216  0.0000E+00  0.4000E+01
    -10.192  0.0000E+00  0.4000E+01
    -10.168  0.0000E+00  0.4000E+01
    -10.143  0.0000E+00  0.4000E+01
    -10.119  0.0000E+00  0.4000E+01
    -10.095  0.0000E+00  0.4000E+01
    -10.071  0.0000E+00  0.4000E+01
    -10.047  0.0000E+00  0.4000E+01
    -10.023  0.0000E+00  0.4000E+01
     -9.999  0.0000E+00  0.4000E+01
     -9.975  0.0000E+00  0.4000E+01
     -9.951  0.0000E+00  0.4000E+01
     -9.927  0.0000E+00  0.4000E+01
     -9.903  0.0000E+00  0.4000E+01
     -9.879  0.0000E+00  0.4000E+01
     -9.855  0.0000E+00  0.4000E+01
     -9.831  0.0000E+00  0.4000E+01
     -9.807  0.0000E+00  0.4000E+01
     -9.783  0.0000E+00  0.4000E+01
     -9.759  0.0000E+00  0.4000E+01
     -9.735  0.0000E+00  0.4000E+01
     -9.711  0.0000E+00  0.4000E+01
     -9.687  0.0000E+00  0.4000E+01
     -9.663  0.0000E+00  0.4000E+01
     -9.639  0.0000E+00  0.4000E+01
     -9.615  0.0000E+00  0.4000E+01
     -9.590  0.0000E+00  0.4000E+01
     -9.566  0.0000E+00  0.4000E+01
     -9.542  0.0000E+00  0.4000E+01
     -9.518  0.0000E+00  0.4000E+01
     -9.494  0.0000E+00  0.4000E+01
     -9.470  0.0000E+00  0.4000E+01
     -9.446  0.0000E+00  0.4000E+01
     -9.422  0.0000E+00  0.4000E+01
     -9.398  0.0000E+00  0.4000E+01
     -9.374  0.0000E+00  0.4000E+01
     -9.350  0.0000E+00  0.4000E+01
     -9.326  0.0000E+00  0.4000E+01
     -9.302  0.0000E+00  0.4000E+01
     -9.278  0.0000E+00  0.4000E+01
     -9.254  0.0000E+00  0.4000E+01
     -9.230  0.0000E+00  0.4000E+01
     -9.206  0.0000E+00  0.4000E+01
     -9.182  0.0000E+00  0.4000E+01
     -9.158  0.0000E+00  0.4000E+01
     -9.134  0.0000E+00  0.4000E+01
     -9.110  0.0000E+00  0.4000E+01
     -9.086  0.0000E+00  0.4000E+01
     -9.062  0.0000E+00  0.4000E+01
     -9.038  0.0000E+00  0.4000E+01
     -9.013  0.0000E+00  0.4000E+01
     -8.989  0.0000E+00  0.4000E+01
     -8.965  0.3848E-15  0.4000E+01
     -8.941  0.8104E-13  0.4000E+01
     -8.917  0.1202E-10  0.4000E+01
     -8.893  0.1132E-08  0.4000E+01
     -8.869  0.6797E-07  0.4000E+01
     -8.845  0.2605E-05  0.4000E+01
     -8.821  0.6393E-04  0.4000E+01
     -8.797  0.1008E-02  0.4000E+01
     -8.773  0.1025E-01  0.4000E+01
     -8.749  0.6766E-01  0.4002E+01
     -8.725  0.2919E+00  0.4009E+01
     -8.701  0.8322E+00  0.4029E+01
     -8.677  0.1596E+01  0.4067E+01
     -8.653  0.2135E+01  0.4119E+01
     -8.629  0.2179E+01  0.4171E+01
     -8.605  0.2066E+01  0.4221E+01
     -8.581  0.2233E+01  0.4274E+01
     -8.557  0.2567E+01  0.4336E+01
     -8.533  0.2670E+01  0.4400E+01
     -8.509  0.2478E+01  0.4460E+01
     -8.485  0.2203E+01  0.4513E+01
     -8.460  0.1924E+01  0.4559E+01
     -8.436  0.1638E+01  0.4598E+01
     -8.412  0.1412E+01  0.4632E+01
     -8.388  0.1317E+01  0.4664E+01
     -8.364  0.1331E+01  0.4696E+01
     -8.340  0.1369E+01  0.4729E+01
     -8.316  0.1335E+01  0.4761E+01
     -8.292  0.1204E+01  0.4790E+01
     -8.268  0.1081E+01  0.4816E+01
     -8.244  0.1061E+01  0.4842E+01
     -8.220  0.1089E+01  0.4868E+01
     -8.196  0.1054E+01  0.4893E+01
     -8.172  0.1005E+01  0.4917E+01
     -8.148  0.1049E+01  0.4942E+01
     -8.124  0.1137E+01  0.4970E+01
     -8.100  0.1136E+01  0.4997E+01
     -8.076  0.1012E+01  0.5021E+01
     -8.052  0.8569E+00  0.5042E+01
     -8.028  0.7881E+00  0.5061E+01
     -8.004  0.9671E+00  0.5084E+01
     -7.980  0.1595E+01  0.5123E+01
     -7.956  0.2591E+01  0.5185E+01
     -7.932  0.3355E+01  0.5266E+01
     -7.907  0.3427E+01  0.5348E+01
     -7.883  0.3193E+01  0.5425E+01
     -7.859  0.3194E+01  0.5502E+01
     -7.835  0.3336E+01  0.5582E+01
     -7.811  0.3305E+01  0.5661E+01
     -7.787  0.3071E+01  0.5735E+01
     -7.763  0.2846E+01  0.5803E+01
     -7.739  0.2792E+01  0.5871E+01
     -7.715  0.2845E+01  0.5939E+01
     -7.691  0.2836E+01  0.6007E+01
     -7.667  0.2670E+01  0.6071E+01
     -7.643  0.2492E+01  0.6131E+01
     -7.619  0.2578E+01  0.6193E+01
     -7.595  0.2881E+01  0.6263E+01
     -7.571  0.3041E+01  0.6336E+01
     -7.547  0.2959E+01  0.6407E+01
     -7.523  0.2815E+01  0.6475E+01
     -7.499  0.2601E+01  0.6537E+01
     -7.475  0.2207E+01  0.6590E+01
     -7.451  0.1790E+01  0.6633E+01
     -7.427  0.1681E+01  0.6674E+01
     -7.403  0.2035E+01  0.6722E+01
     -7.379  0.2577E+01  0.6784E+01
     -7.354  0.2701E+01  0.6849E+01
     -7.330  0.2138E+01  0.6901E+01
     -7.306  0.1326E+01  0.6933E+01
     -7.282  0.7544E+00  0.6951E+01
     -7.258  0.4625E+00  0.6962E+01
     -7.234  0.3543E+00  0.6970E+01
     -7.210  0.3798E+00  0.6980E+01
     -7.186  0.4287E+00  0.6990E+01
     -7.162  0.4370E+00  0.7000E+01
     -7.138  0.4757E+00  0.7012E+01
     -7.114  0.5667E+00  0.7025E+01
     -7.090  0.6120E+00  0.7040E+01
     -7.066  0.5319E+00  0.7053E+01
     -7.042  0.3485E+00  0.7061E+01
     -7.018  0.1675E+00  0.7065E+01
     -6.994  0.8608E-01  0.7067E+01
     -6.970  0.1322E+00  0.7071E+01
     -6.946  0.2675E+00  0.7077E+01
     -6.922  0.3841E+00  0.7086E+01
     -6.898  0.4023E+00  0.7096E+01
     -6.874  0.3880E+00  0.7105E+01
     -6.850  0.4088E+00  0.7115E+01
     -6.826  0.4024E+00  0.7125E+01
     -6.801  0.3681E+00  0.7134E+01
     -6.777  0.4744E+00  0.7145E+01
     -6.753  0.8501E+00  0.7165E+01
     -6.729  0.1427E+01  0.7200E+01
     -6.705  0.2022E+01  0.7248E+01
     -6.681  0.2535E+01  0.7309E+01
     -6.657  0.3055E+01  0.7383E+01
     -6.633  0.3847E+01  0.7475E+01
     -6.609  0.5126E+01  0.7599E+01
     -6.585  0.6416E+01  0.7753E+01
     -6.561  0.6713E+01  0.7914E+01
     -6.537  0.5838E+01  0.8055E+01
     -6.513  0.4644E+01  0.8166E+01
     -6.489  0.3870E+01  0.8259E+01
     -6.465  0.3553E+01  0.8345E+01
     -6.441  0.3264E+01  0.8423E+01
     -6.417  0.2641E+01  0.8487E+01
     -6.393  0.1879E+01  0.8532E+01
     -6.369  0.1480E+01  0.8567E+01
     -6.345  0.1564E+01  0.8605E+01
     -6.321  0.1816E+01  0.8649E+01
     -6.297  0.1887E+01  0.8694E+01
     -6.273  0.1671E+01  0.8734E+01
     -6.248  0.1278E+01  0.8765E+01
     -6.224  0.8358E+00  0.8785E+01
     -6.200  0.4606E+00  0.8796E+01
     -6.176  0.2854E+00  0.8803E+01
     -6.152  0.3421E+00  0.8811E+01
     -6.128  0.5308E+00  0.8824E+01
     -6.104  0.7904E+00  0.8843E+01
     -6.080  0.1208E+01  0.8872E+01
     -6.056  0.1806E+01  0.8915E+01
     -6.032  0.2310E+01  0.8971E+01
     -6.008  0.2401E+01  0.9029E+01
     -5.984  0.2146E+01  0.9080E+01
     -5.960  0.1791E+01  0.9123E+01
     -5.936  0.1430E+01  0.9158E+01
     -5.912  0.1166E+01  0.9186E+01
     -5.888  0.1112E+01  0.9213E+01
     -5.864  0.1196E+01  0.9241E+01
     -5.840  0.1270E+01  0.9272E+01
     -5.816  0.1389E+01  0.9305E+01
     -5.792  0.1755E+01  0.9347E+01
     -5.768  0.2259E+01  0.9402E+01
     -5.744  0.2441E+01  0.9460E+01
     -5.720  0.2155E+01  0.9512E+01
     -5.696  0.1815E+01  0.9556E+01
     -5.671  0.1761E+01  0.9598E+01
     -5.647  0.1988E+01  0.9646E+01
     -5.623  0.2625E+01  0.9709E+01
     -5.599  0.3770E+01  0.9800E+01
     -5.575  0.4911E+01  0.9918E+01
     -5.551  0.5555E+01  0.1005E+02
     -5.527  0.5903E+01  0.1019E+02
     -5.503  0.6116E+01  0.1034E+02
     -5.479  0.5917E+01  0.1048E+02
     -5.455  0.5275E+01  0.1061E+02
     -5.431  0.4444E+01  0.1072E+02
     -5.407  0.3546E+01  0.1080E+02
     -5.383  0.2689E+01  0.1087E+02
     -5.359  0.1977E+01  0.1091E+02
     -5.335  0.1403E+01  0.1095E+02
     -5.311  0.1086E+01  0.1097E+02
     -5.287  0.1207E+01  0.1100E+02
     -5.263  0.1582E+01  0.1104E+02
     -5.239  0.1784E+01  0.1108E+02
     -5.215  0.1703E+01  0.1112E+02
     -5.191  0.1552E+01  0.1116E+02
     -5.167  0.1437E+01  0.1120E+02
     -5.143  0.1306E+01  0.1123E+02
     -5.118  0.1196E+01  0.1126E+02
     -5.094  0.1229E+01  0.1129E+02
     -5.070  0.1417E+01  0.1132E+02
     -5.046  0.1584E+01  0.1136E+02
     -5.022  0.1565E+01  0.1140E+02
     -4.998  0.1505E+01  0.1143E+02
     -4.974  0.1814E+01  0.1148E+02
     -4.950  0.2598E+01  0.1154E+02
     -4.926  0.3389E+01  0.1162E+02
     -4.902  0.3704E+01  0.1171E+02
     -4.878  0.3509E+01  0.1179E+02
     -4.854  0.3112E+01  0.1187E+02
     -4.830  0.2719E+01  0.1193E+02
     -4.806  0.2285E+01  0.1199E+02
     -4.782  0.1802E+01  0.1203E+02
     -4.758  0.1443E+01  0.1207E+02
     -4.734  0.1315E+01  0.1210E+02
     -4.710  0.1369E+01  0.1213E+02
     -4.686  0.1581E+01  0.1217E+02
     -4.662  0.1918E+01  0.1221E+02
     -4.638  0.2236E+01  0.1227E+02
     -4.614  0.2480E+01  0.1233E+02
     -4.590  0.2823E+01  0.1240E+02
     -4.565  0.3340E+01  0.1248E+02
     -4.541  0.3701E+01  0.1257E+02
     -4.517  0.3568E+01  0.1265E+02
     -4.493  0.3091E+01  0.1273E+02
     -4.469  0.2712E+01  0.1279E+02
     -4.445  0.2719E+01  0.1286E+02
     -4.421  0.3175E+01  0.1293E+02
     -4.397  0.4115E+01  0.1303E+02
     -4.373  0.5603E+01  0.1317E+02
     -4.349  0.7370E+01  0.1334E+02
     -4.325  0.8317E+01  0.1354E+02
     -4.301  0.7376E+01  0.1372E+02
     -4.277  0.5164E+01  0.1384E+02
     -4.253  0.3282E+01  0.1392E+02
     -4.229  0.2381E+01  0.1398E+02
     -4.205  0.2031E+01  0.1403E+02
     -4.181  0.1709E+01  0.1407E+02
     -4.157  0.1377E+01  0.1410E+02
     -4.133  0.1291E+01  0.1413E+02
     -4.109  0.1480E+01  0.1417E+02
     -4.085  0.1688E+01  0.1421E+02
     -4.061  0.1666E+01  0.1425E+02
     -4.037  0.1413E+01  0.1429E+02
     -4.012  0.1220E+01  0.1431E+02
     -3.988  0.1297E+01  0.1435E+02
     -3.964  0.1476E+01  0.1438E+02
     -3.940  0.1551E+01  0.1442E+02
     -3.916  0.1538E+01  0.1446E+02
     -3.892  0.1479E+01  0.1449E+02
     -3.868  0.1402E+01  0.1452E+02
     -3.844  0.1428E+01  0.1456E+02
     -3.820  0.1602E+01  0.1460E+02
     -3.796  0.1791E+01  0.1464E+02
     -3.772  0.1858E+01  0.1469E+02
     -3.748  0.1816E+01  0.1473E+02
     -3.724  0.1880E+01  0.1477E+02
     -3.700  0.2349E+01  0.1483E+02
     -3.676  0.3214E+01  0.1491E+02
     -3.652  0.3920E+01  0.1500E+02
     -3.628  0.3896E+01  0.1510E+02
     -3.604  0.3286E+01  0.1517E+02
     -3.580  0.2702E+01  0.1524E+02
     -3.556  0.2510E+01  0.1530E+02
     -3.532  0.2684E+01  0.1536E+02
     -3.508  0.2984E+01  0.1544E+02
     -3.484  0.3068E+01  0.1551E+02
     -3.459  0.2804E+01  0.1558E+02
     -3.435  0.2553E+01  0.1564E+02
     -3.411  0.2733E+01  0.1570E+02
     -3.387  0.3248E+01  0.1578E+02
     -3.363  0.3612E+01  0.1587E+02
     -3.339  0.3534E+01  0.1595E+02
     -3.315  0.3102E+01  0.1603E+02
     -3.291  0.2439E+01  0.1609E+02
     -3.267  0.1723E+01  0.1613E+02
     -3.243  0.1214E+01  0.1616E+02
     -3.219  0.9075E+00  0.1618E+02
     -3.195  0.6731E+00  0.1620E+02
     -3.171  0.5821E+00  0.1621E+02
     -3.147  0.7233E+00  0.1623E+02
     -3.123  0.1031E+01  0.1625E+02
     -3.099  0.1364E+01  0.1629E+02
     -3.075  0.1548E+01  0.1632E+02
     -3.051  0.1515E+01  0.1636E+02
     -3.027  0.1464E+01  0.1639E+02
     -3.003  0.1615E+01  0.1643E+02
     -2.979  0.1883E+01  0.1648E+02
     -2.955  0.1980E+01  0.1653E+02
     -2.931  0.1803E+01  0.1657E+02
     -2.906  0.1538E+01  0.1661E+02
     -2.882  0.1363E+01  0.1664E+02
     -2.858  0.1273E+01  0.1667E+02
     -2.834  0.1243E+01  0.1670E+02
     -2.810  0.1296E+01  0.1673E+02
     -2.786  0.1403E+01  0.1676E+02
     -2.762  0.1487E+01  0.1680E+02
     -2.738  0.1457E+01  0.1684E+02
     -2.714  0.1301E+01  0.1687E+02
     -2.690  0.1174E+01  0.1689E+02
     -2.666  0.1241E+01  0.1692E+02
     -2.642  0.1458E+01  0.1696E+02
     -2.618  0.1622E+01  0.1700E+02
     -2.594  0.1606E+01  0.1704E+02
     -2.570  0.1471E+01  0.1707E+02
     -2.546  0.1390E+01  0.1711E+02
     -2.522  0.1423E+01  0.1714E+02
     -2.498  0.1463E+01  0.1718E+02
     -2.474  0.1483E+01  0.1721E+02
     -2.450  0.1600E+01  0.1725E+02
     -2.426  0.1801E+01  0.1729E+02
     -2.402  0.1918E+01  0.1734E+02
     -2.378  0.1973E+01  0.1739E+02
     -2.354  0.2214E+01  0.1744E+02
     -2.329  0.2756E+01  0.1751E+02
     -2.305  0.3344E+01  0.1759E+02
     -2.281  0.3423E+01  0.1767E+02
     -2.257  0.2740E+01  0.1773E+02
     -2.233  0.1762E+01  0.1778E+02
     -2.209  0.1113E+01  0.1780E+02
     -2.185  0.9806E+00  0.1783E+02
     -2.161  0.1207E+01  0.1786E+02
     -2.137  0.1534E+01  0.1789E+02
     -2.113  0.1671E+01  0.1793E+02
     -2.089  0.1415E+01  0.1797E+02
     -2.065  0.8693E+00  0.1799E+02
     -2.041  0.3685E+00  0.1800E+02
     -2.017  0.1044E+00  0.1800E+02
     -1.993  0.1938E-01  0.1800E+02
     -1.969  0.2334E-02  0.1800E+02
     -1.945  0.1811E-03  0.1800E+02
     -1.921  0.9012E-05  0.1800E+02
     -1.897  0.2870E-06  0.1800E+02
     -1.873  0.5832E-08  0.1800E+02
     -1.849  0.7551E-10  0.1800E+02
     -1.825  0.6220E-12  0.1800E+02
     -1.801  0.3232E-14  0.1800E+02
     -1.776  0.0000E+00  0.1800E+02
     -1.752  0.0000E+00  0.1800E+02
     -1.728  0.0000E+00  0.1800E+02
     -1.704  0.0000E+00  0.1800E+02
     -1.680  0.0000E+00  0.1800E+02
     -1.656  0.0000E+00  0.1800E+02
     -1.632  0.0000E+00  0.1800E+02
     -1.608  0.0000E+00  0.1800E+02
     -1.584  0.0000E+00  0.1800E+02
     -1.560  0.0000E+00  0.1800E+02
     -1.536  0.0000E+00  0.1800E+02
     -1.512  0.0000E+00  0.1800E+02
     -1.488  0.0000E+00  0.1800E+02
     -1.464  0.0000E+00  0.1800E+02
     -1.440  0.0000E+00  0.1800E+02
     -1.416  0.0000E+00  0.1800E+02
     -1.392  0.0000E+00  0.1800E+02
     -1.368  0.0000E+00  0.1800E+02
     -1.344  0.0000E+00  0.1800E+02
     -1.320  0.0000E+00  0.1800E+02
     -1.296  0.0000E+00  0.1800E+02
     -1.272  0.0000E+00  0.1800E+02
     -1.248  0.0000E+00  0.1800E+02
     -1.223  0.0000E+00  0.1800E+02
     -1.199  0.0000E+00  0.1800E+02
     -1.175  0.0000E+00  0.1800E+02
     -1.151  0.0000E+00  0.1800E+02
     -1.127  0.0000E+00  0.1800E+02
     -1.103  0.0000E+00  0.1800E+02
     -1.079  0.0000E+00  0.1800E+02
     -1.055  0.0000E+00  0.1800E+02
     -1.031  0.0000E+00  0.1800E+02
     -1.007  0.0000E+00  0.1800E+02
     -0.983  0.0000E+00  0.1800E+02
     -0.959  0.0000E+00  0.1800E+02
     -0.935  0.0000E+00  0.1800E+02
     -0.911  0.0000E+00  0.1800E+02
     -0.887  0.0000E+00  0.1800E+02
     -0.863  0.0000E+00  0.1800E+02
     -0.839  0.0000E+00  0.1800E+02
     -0.815  0.0000E+00  0.1800E+02
     -0.791  0.0000E+00  0.1800E+02
     -0.767  0.0000E+00  0.1800E+02
     -0.743  0.0000E+00  0.1800E+02
     -0.719  0.0000E+00  0.1800E+02
     -0.695  0.0000E+00  0.1800E+02
     -0.670  0.0000E+00  0.1800E+02
     -0.646  0.0000E+00  0.1800E+02
     -0.622  0.0000E+00  0.1800E+02
     -0.598  0.0000E+00  0.1800E+02
     -0.574  0.0000E+00  0.1800E+02
     -0.550  0.0000E+00  0.1800E+02
     -0.526  0.0000E+00  0.1800E+02
     -0.502  0.0000E+00  0.1800E+02
     -0.478  0.0000E+00  0.1800E+02
     -0.454  0.1077E-14  0.1800E+02
     -0.430  0.2390E-12  0.1800E+02
     -0.406  0.3139E-10  0.1800E+02
     -0.382  0.2624E-08  0.1800E+02
     -0.358  0.1396E-06  0.1800E+02
     -0.334  0.4742E-05  0.1800E+02
     -0.310  0.1030E-03  0.1800E+02
     -0.286  0.1437E-02  0.1800E+02
     -0.262  0.1292E-01  0.1800E+02
     -0.238  0.7555E-01  0.1800E+02
     -0.214  0.2915E+00  0.1801E+02
     -0.190  0.7629E+00  0.1803E+02
     -0.166  0.1419E+01  0.1806E+02
     -0.142  0.1997E+01  0.1811E+02
     -0.117  0.2258E+01  0.1816E+02
     -0.093  0.2165E+01  0.1822E+02
     -0.069  0.1876E+01  0.1826E+02
     -0.045  0.1532E+01  0.1830E+02
     -0.021  0.1222E+01  0.1833E+02
      0.003  0.1151E+01  0.1836E+02
      0.027  0.1335E+01  0.1839E+02
      0.051  0.1443E+01  0.1842E+02
      0.075  0.1363E+01  0.1845E+02
      0.099  0.1398E+01  0.1849E+02
      0.123  0.1708E+01  0.1853E+02
      0.147  0.2044E+01  0.1858E+02
      0.171  0.2193E+01  0.1863E+02
      0.195  0.2196E+01  0.1868E+02
      0.219  0.2095E+01  0.1873E+02
      0.243  0.1948E+01  0.1878E+02
      0.267  0.1886E+01  0.1883E+02
      0.291  0.1889E+01  0.1887E+02
      0.315  0.1819E+01  0.1892E+02
      0.339  0.1656E+01  0.1896E+02
      0.363  0.1524E+01  0.1899E+02
      0.387  0.1470E+01  0.1903E+02
      0.411  0.1474E+01  0.1906E+02
      0.436  0.1707E+01  0.1910E+02
      0.460  0.2249E+01  0.1916E+02
      0.484  0.2773E+01  0.1922E+02
      0.508  0.2989E+01  0.1930E+02
      0.532  0.3020E+01  0.1937E+02
      0.556  0.3075E+01  0.1944E+02
      0.580  0.3168E+01  0.1952E+02
      0.604  0.3331E+01  0.1960E+02
      0.628  0.3756E+01  0.1969E+02
      0.652  0.4418E+01  0.1980E+02
      0.676  0.4930E+01  0.1991E+02
      0.700  0.5124E+01  0.2004E+02