    3    3    1    1
  0.5740403E+02  0.3153200E-09  0.3153200E-09  0.2000000E-08  0.5000000E-15
  1.000000000000000E-004
  CAR 
 anon                                    
     18     60     64
 
  0.0000000E+00  0.0000000E+00  0.0000000E+00  0.1666667E-01
      1        -16.950987   1.000000
      2        -15.392179   1.000000
      3         -8.559842   1.000000
      4         -4.910861   1.000000
      5         -4.910858   1.000000
      6         -4.333380   1.000000
      7         -3.655236   1.000000
      8         -3.655223   1.000000
      9         -2.288962   1.000000
     10          0.847180   0.000000
     11          0.847189   0.000000
     12          0.964651   0.000000
     13          0.964655   0.000000
     14          2.900076   0.000000
     15          3.201839   0.000000
     16          3.572362   0.000000
     17          4.131723   0.000000
     18          5.055011   0.000000
     19          6.196855   0.000000
     20          6.732909   0.000000
     21          7.867622   0.000000
     22          8.635928   0.000000
     23          8.635930   0.000000
     24          9.039339   0.000000
     25         10.712451   0.000000
     26         10.895467   0.000000
     27         10.895473   0.000000
     28         11.637682   0.000000
     29         12.954377   0.000000
     30         13.913973   0.000000
     31         14.448672   0.000000
     32         14.448677   0.000000
     33         14.784209   0.000000
     34         14.784212   0.000000
     35         15.821849   0.000000
     36         16.257753   0.000000
     37         17.364568   0.000000
     38         18.225259   0.000000
     39         20.804419   0.000000
     40         20.804421   0.000000
     41         21.112273   0.000000
     42         21.569816   0.000000
     43         22.406185   0.000000
     44         22.406188   0.000000
     45         22.775458   0.000000
     46         22.981903   0.000000
     47         23.003238   0.000000
     48         23.003251   0.000000
     49         23.121843   0.000000
     50         23.121850   0.000000
     51         23.329272   0.000000
     52         23.512115   0.000000
     53         23.625224   0.000000
     54         23.625286   0.000000
     55         24.040373   0.000000
     56         24.053467   0.000000
     57         24.053945   0.000000
     58         24.141427   0.000000
     59         24.569329   0.000000
     60         24.569482   0.000000
     61         24.573952   0.000000
     62         24.573981   0.000000
     63         24.686323   0.000000
     64         25.032067   0.000000
 
  0.2631579E-01  0.0000000E+00  0.0000000E+00  0.1666667E-01
      1        -16.939471   1.000000
      2        -15.387321   1.000000
      3         -8.545582   1.000000
      4         -4.943299   1.000000
      5         -4.899195   1.000000
      6         -4.379338   1.000000
      7         -3.675195   1.000000
      8         -3.629842   1.000000
      9         -2.292784   1.000000
     10          0.832731   0.000000
     11          0.870097   0.000000
     12          0.928425   0.000000
     13          0.953353   0.000000
     14          2.930672   0.000000
     15          3.216112   0.000000
     16          3.610603   0.000000
     17          4.153990   0.000000
     18          5.068476   0.000000
     19          6.211552   0.000000
     20          6.786030   0.000000
     21          7.880174   0.000000
     22          8.535334   0.000000
     23          8.669983   0.000000
     24          9.109938   0.000000
     25         10.735448   0.000000
     26         10.783726   0.000000
     27         10.895054   0.000000
     28         11.651026   0.000000
     29         12.961019   0.000000
     30         14.027866   0.000000
     31         14.342468   0.000000
     32         14.473178   0.000000
     33         14.739401   0.000000
     34         14.760339   0.000000
     35         15.855949   0.000000
     36         16.295231   0.000000
     37         17.504383   0.000000
     38         18.233597   0.000000
     39         20.604169   0.000000
     40         20.843564   0.000000
     41         21.271654   0.000000
     42         21.535104   0.000000
     43         21.783498   0.000000
     44         22.198253   0.000000
     45         22.242308   0.000000
     46         22.612172   0.000000
     47         22.762803   0.000000
     48         22.829501   0.000000
     49         23.216741   0.000000
     50         23.320834   0.000000
     51         23.340245   0.000000
     52         23.540907   0.000000
     53         23.558129   0.000000
     54         23.744313   0.000000
     55         23.798467   0.000000
     56         24.085398   0.000000
     57         24.129384   0.000000
     58         24.322878   0.000000
     59         24.332759   0.000000
     60         24.564247   0.000000
     61         24.612252   0.000000
     62         24.845551   0.000000
     63         25.074372   0.000000
     64         25.201922   0.000000
 
  0.5263158E-01  0.0000000E+00  0.0000000E+00  0.1666667E-01
      1        -16.905061   1.000000
      2        -15.372815   1.000000
      3         -8.503069   1.000000
      4         -5.037559   1.000000
      5         -4.864030   1.000000
      6         -4.497699   1.000000
      7         -3.732984   1.000000
      8         -3.574015   1.000000
      9         -2.305148   1.000000
     10          0.795322   0.000000
     11          0.829111   0.000000
     12          0.920786   0.000000
     13          0.936893   0.000000
     14          3.011780   0.000000
     15          3.258719   0.000000
     16          3.722191   0.000000
     17          4.224898   0.000000
     18          5.108759   0.000000
     19          6.255231   0.000000
     20          6.939106   0.000000
     21          7.917451   0.000000
     22          8.328302   0.000000
     23          8.773362   0.000000
     24          9.237390   0.000000
     25         10.499843   0.000000
     26         10.790694   0.000000
     27         10.895737   0.000000
     28         11.687727   0.000000
     29         12.979518   0.000000
     30         13.970851   0.000000
     31         14.444323   0.000000
     32         14.545824   0.000000
     33         14.613116   0.000000
     34         14.696161   0.000000
     35         15.957902   0.000000
     36         16.383423   0.000000
     37         17.880475   0.000000
     38         18.258821   0.000000
     39         20.278569   0.000000
     40         20.823072   0.000000
     41         20.946201   0.000000
     42         21.260326   0.000000
     43         21.603846   0.000000
     44         21.640697   0.000000
     45         21.831411   0.000000
     46         22.053080   0.000000
     47         22.098067   0.000000
     48         22.369700   0.000000
     49         22.608799   0.000000
     50         22.867847   0.000000
     51         23.142179   0.000000
     52         23.326436   0.000000
     53         23.526780   0.000000
     54         23.844249   0.000000
     55         24.006115   0.000000
     56         24.092499   0.000000
     57         24.122674   0.000000
     58         24.305296   0.000000
     59         24.547044   0.000000
     60         24.894177   0.000000
     61         25.047999   0.000000
     62         25.059411   0.000000
     63         25.158191   0.000000
     64         25.297240   0.000000
 
  0.7894737E-01  0.0000000E+00  0.0000000E+00  0.1666667E-01
      1        -16.848236   1.000000
      2        -15.348877   1.000000
      3         -8.433420   1.000000
      4         -5.185841   1.000000
      5         -4.806622   1.000000
      6         -4.658192   1.000000
      7         -3.823829   1.000000
      8         -3.520545   1.000000
      9         -2.329553   1.000000
     10          0.688362   0.000000
     11          0.749807   0.000000
     12          0.869912   0.000000
     13          1.041449   0.000000
     14          3.122833   0.000000
     15          3.329078   0.000000
     16          3.889174   0.000000
     17          4.358962   0.000000
     18          5.175467   0.000000
     19          6.326651   0.000000
     20          7.172728   0.000000
     21          7.978108   0.000000
     22          8.089560   0.000000
     23          8.939788   0.000000
     24          9.367910   0.000000
     25         10.134316   0.000000
     26         10.844270   0.000000
     27         10.901514   0.000000
     28         11.741753   0.000000
     29         13.004415   0.000000
     30         13.610309   0.000000
     31         14.415227   0.000000
     32         14.608056   0.000000
     33         14.660084   0.000000
     34         14.908104   0.000000
     35         16.125123   0.000000
     36         16.505230   0.000000
     37         18.296666   0.000000
     38         18.400833   0.000000
     39         19.863394   0.000000
     40         19.937625   0.000000
     41         20.558235   0.000000
     42         21.048749   0.000000
     43         21.171683   0.000000
     44         21.394757   0.000000
     45         21.452426   0.000000
     46         21.748727   0.000000
     47         21.760368   0.000000
     48         22.030955   0.000000
     49         22.064958   0.000000
     50         22.170179   0.000000
     51         22.704290   0.000000
     52         22.906625   0.000000
     53         23.302201   0.000000
     54         23.369112   0.000000
     55         23.439760   0.000000
     56         24.377317   0.000000
     57         24.385816   0.000000
     58         24.437710   0.000000
     59         24.550460   0.000000
     60         24.749122   0.000000
     61         25.055065   0.000000
     62         25.205533   0.000000
     63         25.517192   0.000000
     64         25.812028   0.000000
 
  0.1052632E+00  0.0000000E+00  0.0000000E+00  0.1666667E-01
      1        -16.769782   1.000000
      2        -15.315867   1.000000
      3         -8.338550   1.000000
      4         -5.377158   1.000000
      5         -4.842567   1.000000
      6         -4.728149   1.000000
      7         -3.940847   1.000000
      8         -3.490296   1.000000
      9         -2.371139   1.000000
     10          0.530840   0.000000
     11          0.714607   0.000000
     12          0.805528   0.000000
     13          1.175537   0.000000
     14          3.250681   0.000000
     15          3.426408   0.000000
     16          4.073739   0.000000
     17          4.578204   0.000000
     18          5.267940   0.000000
     19          6.424748   0.000000
     20          7.453485   0.000000
     21          7.848588   0.000000
     22          8.059946   0.000000
     23          9.164718   0.000000
     24          9.495689   0.000000
     25          9.760873   0.000000
     26         10.861646   0.000000
     27         10.919830   0.000000
     28         11.802304   0.000000
     29         13.022685   0.000000
     30         13.241123   0.000000
     31         14.161612   0.000000
     32         14.524913   0.000000
     33         14.808839   0.000000
     34         15.441165   0.000000
     35         16.351975   0.000000
     36         16.673376   0.000000
     37         18.311194   0.000000
     38         18.963650   0.000000
     39         19.079047   0.000000
     40         19.259950   0.000000
     41         19.958867   0.000000
     42         20.438615   0.000000
     43         20.719086   0.000000
     44         20.991401   0.000000
     45         21.089021   0.000000
     46         21.419685   0.000000
     47         21.640601   0.000000
     48         21.839985   0.000000
     49         21.883970   0.000000
     50         21.897024   0.000000
     51         22.307093   0.000000
     52         22.376219   0.000000
     53         22.820602   0.000000
     54         22.832572   0.000000
     55         22.950032   0.000000
     56         23.699575   0.000000
     57         24.108360   0.000000
     58         24.562250   0.000000
     59         24.723470   0.000000
     60         25.019689   0.000000
     61         25.173076   0.000000
     62         25.459318   0.000000
     63         25.581653   0.000000
     64         25.700074   0.000000
 
  0.1315789E+00  0.0000000E+00  0.0000000E+00  0.1666667E-01
      1        -16.670822   1.000000
      2        -15.274317   1.000000
      3         -8.221659   1.000000
      4         -5.599201   1.000000
      5         -5.041761   1.000000
      6         -4.630656   1.000000
      7         -4.076605   1.000000
      8         -3.492738   1.000000
      9         -2.436322   1.000000
     10          0.379546   0.000000
     11          0.705870   0.000000
     12          0.733309   0.000000
     13          1.329655   0.000000
     14          3.391985   0.000000
     15          3.549751   0.000000
     16          4.249932   0.000000
     17          4.878837   0.000000
     18          5.385063   0.000000
     19          6.550133   0.000000
     20          7.623941   0.000000
     21          7.715928   0.000000
     22          8.164788   0.000000
     23          9.439386   0.000000
     24          9.451684   0.000000
     25          9.619146   0.000000
     26         10.821963   0.000000
     27         10.957860   0.000000
     28         11.842407   0.000000
     29         12.934388   0.000000
     30         13.011115   0.000000
     31         13.867894   0.000000
     32         14.482191   0.000000
     33         14.982905   0.000000
     34         15.961390   0.000000
     35         16.627455   0.000000
     36         16.914270   0.000000
     37         18.060538   0.000000
     38         18.219881   0.000000
     39         18.734510   0.000000
     40         19.288889   0.000000
     41         19.485897   0.000000
     42         19.972911   0.000000
     43         20.055485   0.000000
     44         20.715282   0.000000
     45         20.749300   0.000000
     46         20.995969   0.000000
     47         21.266663   0.000000
     48         21.476980   0.000000
     49         21.727748   0.000000
     50         21.942999   0.000000
     51         22.001828   0.000000
     52         22.194981   0.000000
     53         22.267566   0.000000
     54         22.512047   0.000000
     55         22.600089   0.000000
     56         23.069416   0.000000
     57         23.662750   0.000000
     58         24.328838   0.000000
     59         24.525287   0.000000
     60         24.805814   0.000000
     61         24.838429   0.000000
     62         25.596519   0.000000
     63         25.834172   0.000000
     64         25.925469   0.000000
 
  0.1578947E+00  0.0000000E+00  0.0000000E+00  0.1666667E-01
      1        -16.552792   1.000000
      2        -15.224921   1.000000
      3         -8.087551   1.000000
      4         -5.839434   1.000000
      5         -5.251065   1.000000
      6         -4.516805   1.000000
      7         -4.224203   1.000000
      8         -3.529284   1.000000
      9         -2.530002   1.000000
     10          0.253914   0.000000
     11          0.659377   0.000000
     12          0.733522   0.000000
     13          1.494515   0.000000
     14          3.547313   0.000000
     15          3.697966   0.000000
     16          4.422485   0.000000
     17          5.212827   0.000000
     18          5.525139   0.000000
     19          6.707873   0.000000
     20          7.435028   0.000000
     21          7.829079   0.000000
     22          8.316100   0.000000
     23          9.308960   0.000000
     24          9.732178   0.000000
     25          9.753288   0.000000
     26         10.730110   0.000000
     27         11.022712   0.000000
     28         11.811261   0.000000
     29         12.765378   0.000000
     30         12.945786   0.000000
     31         13.551271   0.000000
     32         14.507409   0.000000
     33         15.170767   0.000000
     34         16.390545   0.000000
     35         16.924264   0.000000
     36         17.096839   0.000000
     37         17.380068   0.000000
     38         17.599467   0.000000
     39         18.212043   0.000000
     40         18.926089   0.000000
     41         19.090508   0.000000
     42         19.814723   0.000000
     43         19.870239   0.000000
     44         20.356399   0.000000
     45         20.436814   0.000000
     46         20.718283   0.000000
     47         20.921246   0.000000
     48         21.022156   0.000000
     49         21.369271   0.000000
     50         21.593725   0.000000
     51         21.762821   0.000000
     52         22.140144   0.000000
     53         22.271756   0.000000
     54         22.366613   0.000000
     55         22.366768   0.000000
     56         22.579546   0.000000
     57         23.283865   0.000000
     58         23.857126   0.000000
     59         24.075611   0.000000
     60         24.304478   0.000000
     61         24.640935   0.000000
     62         25.729593   0.000000
     63         25.836306   0.000000
     64         25.982233   0.000000
 
  0.1842105E+00  0.0000000E+00  0.0000000E+00  0.1666667E-01
      1        -16.417503   1.000000
      2        -15.168525   1.000000
      3         -7.944028   1.000000
      4         -6.084880   1.000000
      5         -5.467543   1.000000
      6         -4.390074   1.000000
      7         -4.377525   1.000000
      8         -3.595164   1.000000
      9         -2.653262   1.000000
     10          0.167814   0.000000
     11          0.589758   0.000000
     12          0.800196   0.000000
     13          1.661664   0.000000
     14          3.717106   0.000000
     15          3.869494   0.000000
     16          4.601257   0.000000
     17          5.509077   0.000000
     18          5.685144   0.000000
     19          6.907039   0.000000
     20          7.308438   0.000000
     21          7.717240   0.000000
     22          8.503328   0.000000
     23          9.399505   0.000000
     24          9.821894   0.000000
     25         10.088679   0.000000
     26         10.616511   0.000000
     27         11.119844   0.000000
     28         11.693221   0.000000
     29         12.773009   0.000000
     30         12.823786   0.000000
     31         13.231052   0.000000
     32         14.603706   0.000000
     33         15.362857   0.000000
     34         16.480477   0.000000
     35         16.535170   0.000000
     36         16.714501   0.000000
     37         17.280641   0.000000
     38         17.467426   0.000000
     39         17.815039   0.000000
     40         18.445395   0.000000
     41         18.810235   0.000000
     42         19.593397   0.000000
     43         19.602754   0.000000
     44         19.981892   0.000000
     45         20.153321   0.000000
     46         20.393385   0.000000
     47         20.696642   0.000000
     48         20.957619   0.000000
     49         21.000806   0.000000
     50         21.205245   0.000000
     51         21.503043   0.000000
     52         21.970504   0.000000
     53         22.150060   0.000000
     54         22.202367   0.000000
     55         22.384494   0.000000
     56         22.448597   0.000000
     57         23.128455   0.000000
     58         23.305283   0.000000
     59         23.765897   0.000000
     60         23.855143   0.000000
     61         24.415444   0.000000
     62         25.231623   0.000000
     63         25.524158   0.000000
     64         26.111568   0.000000
 
  0.2105263E+00  0.0000000E+00  0.0000000E+00  0.1666667E-01
      1        -16.267168   1.000000
      2        -15.106217   1.000000
      3         -7.803934   1.000000
      4         -6.320558   1.000000
      5         -5.688813   1.000000
      6         -4.531410   1.000000
      7         -4.254316   1.000000
      8         -3.681856   1.000000
      9         -2.800464   1.000000
     10          0.127911   0.000000
     11          0.530296   0.000000
     12          0.901969   0.000000
     13          1.823988   0.000000
     14          3.900268   0.000000
     15          4.062199   0.000000
     16          4.789774   0.000000
     17          5.696728   0.000000
     18          5.859371   0.000000
     19          7.096218   0.000000
     20          7.327053   0.000000
     21          7.483014   0.000000
     22          8.687567   0.000000
     23          9.625003   0.000000
     24          9.876381   0.000000
     25         10.418090   0.000000
     26         10.523046   0.000000
     27         11.253709   0.000000
     28         11.575204   0.000000
     29         12.667387   0.000000
     30         12.906053   0.000000
     31         12.937934   0.000000
     32         14.743853   0.000000
     33         15.549976   0.000000
     34         15.730853   0.000000
     35         15.755929   0.000000
     36         16.620734   0.000000
     37         16.981785   0.000000
     38         17.398464   0.000000
     39         17.680918   0.000000
     40         18.485114   0.000000
     41         18.552449   0.000000
     42         19.215021   0.000000
     43         19.372529   0.000000
     44         19.611768   0.000000
     45         19.899625   0.000000
     46         20.357806   0.000000
     47         20.367933   0.000000
     48         20.531352   0.000000
     49         20.652008   0.000000
     50         21.265801   0.000000
     51         21.282382   0.000000
     52         21.698704   0.000000
     53         21.940064   0.000000
     54         22.126809   0.000000
     55         22.136012   0.000000
     56         22.724301   0.000000
     57         22.898300   0.000000
     58         23.229436   0.000000
     59         23.291151   0.000000
     60         23.711761   0.000000
     61         24.192241   0.000000
     62         24.784775   0.000000
     63         25.321586   0.000000
     64         25.730527   0.000000
 
  0.2368421E+00  0.0000000E+00  0.0000000E+00  0.1666667E-01
      1        -16.104438   1.000000
      2        -15.039275   1.000000
      3         -7.690074   1.000000
      4         -6.524722   1.000000
      5         -5.912288   1.000000
      6         -4.681591   1.000000
      7         -4.114037   1.000000
      8         -3.779694   1.000000
      9         -2.959492   1.000000
     10          0.133729   0.000000
     11          0.486068   0.000000
     12          1.031153   0.000000
     13          1.976002   0.000000
     14          4.093319   0.000000
     15          4.272949   0.000000
     16          4.984501   0.000000
     17          5.753032   0.000000
     18          6.035236   0.000000
     19          7.138882   0.000000
     20          7.235988   0.000000
     21          7.606343   0.000000
     22          8.861845   0.000000
     23          9.834162   0.000000
     24          9.918500   0.000000
     25         10.463977   0.000000
     26         10.683853   0.000000
     27         11.426821   0.000000
     28         11.567098   0.000000
     29         12.514176   0.000000
     30         12.728924   0.000000
     31         13.105114   0.000000
     32         14.790021   0.000000
     33         15.008330   0.000000
     34         15.105477   0.000000
     35         15.722734   0.000000
     36         15.860683   0.000000
     37         16.679393   0.000000
     38         17.248818   0.000000
     39         17.828642   0.000000
     40         18.119561   0.000000
     41         18.420920   0.000000
     42         18.984504   0.000000
     43         19.254006   0.000000
     44         19.632719   0.000000
     45         19.675551   0.000000
     46         19.840635   0.000000
     47         20.105934   0.000000
     48         20.329371   0.000000
     49         20.586444   0.000000
     50         21.049200   0.000000
     51         21.191426   0.000000
     52         21.457446   0.000000
     53         21.723428   0.000000
     54         21.798780   0.000000
     55         22.274571   0.000000
     56         22.625489   0.000000
     57         22.662197   0.000000
     58         23.313066   0.000000
     59         23.319615   0.000000
     60         23.632722   0.000000
     61         23.988903   0.000000
     62         24.457591   0.000000
     63         25.263273   0.000000
     64         25.306026   0.000000
 
  0.2631579E+00  0.0000000E+00  0.0000000E+00  0.1666667E-01
      1        -15.932454   1.000000
      2        -14.969190   1.000000
      3         -7.639912   1.000000
      4         -6.663937   1.000000
      5         -6.134654   1.000000
      6         -4.824740   1.000000
      7         -3.974218   1.000000
      8         -3.879927   1.000000
      9         -3.113487   1.000000
     10          0.180438   0.000000
     11          0.461265   0.000000
     12          1.178011   0.000000
     13          2.113741   0.000000
     14          4.288769   0.000000
     15          4.496938   0.000000
     16          5.166527   0.000000
     17          5.726183   0.000000
     18          6.181793   0.000000
     19          7.054184   0.000000
     20          7.153807   0.000000
     21          7.945785   0.000000
     22          9.008748   0.000000
     23          9.952533   0.000000
     24         10.020501   0.000000
     25         10.401283   0.000000
     26         10.793571   0.000000
     27         11.638585   0.000000
     28         11.728108   0.000000
     29         12.408401   0.000000
     30         12.696579   0.000000
     31         13.325371   0.000000
     32         14.183883   0.000000
     33         14.347336   0.000000
     34         14.962901   0.000000
     35         15.317933   0.000000
     36         15.875605   0.000000
     37         15.986008   0.000000
     38         17.242284   0.000000
     39         17.498546   0.000000
     40         17.973123   0.000000
     41         18.323801   0.000000
     42         18.911788   0.000000
     43         18.914748   0.000000
     44         19.303505   0.000000
     45         19.479734   0.000000
     46         19.834532   0.000000
     47         20.036084   0.000000
     48         20.134164   0.000000
     49         20.361457   0.000000
     50         20.903289   0.000000
     51         21.089489   0.000000
     52         21.246687   0.000000
     53         21.481842   0.000000
     54         21.862000   0.000000
     55         22.103173   0.000000
     56         22.488164   0.000000
     57         22.599455   0.000000
     58         23.301061   0.000000
     59         23.444987   0.000000
     60         23.594669   0.000000
     61         23.811378   0.000000
     62         24.470948   0.000000
     63         24.906101   0.000000
     64         25.329462   0.000000
 
  0.2894737E+00  0.0000000E+00  0.0000000E+00  0.1666667E-01
      1        -15.754923   1.000000
      2        -14.897655   1.000000
      3         -7.687611   1.000000
      4         -6.710468   1.000000
      5         -6.352036   1.000000
      6         -4.958238   1.000000
      7         -3.975813   1.000000
      8         -3.839891   1.000000
      9         -3.244214   1.000000
     10          0.260937   0.000000
     11          0.458685   0.000000
     12          1.332014   0.000000
     13          2.234783   0.000000
     14          4.469908   0.000000
     15          4.726314   0.000000
     16          5.263391   0.000000
     17          5.731629   0.000000
     18          6.243367   0.000000
     19          7.018408   0.000000
     20          7.168459   0.000000
     21          8.250219   0.000000
     22          9.090812   0.000000
     23         10.027068   0.000000
     24         10.208165   0.000000
     25         10.321152   0.000000
     26         10.696871   0.000000
     27         11.886086   0.000000
     28         12.012858   0.000000
     29         12.382745   0.000000
     30         12.891555   0.000000
     31         13.393229   0.000000
     32         13.493668   0.000000
     33         13.920516   0.000000
     34         14.353253   0.000000
     35         15.338645   0.000000
     36         15.395297   0.000000
     37         16.003963   0.000000
     38         16.638609   0.000000
     39         17.455574   0.000000
     40         17.753670   0.000000
     41         18.299112   0.000000
     42         18.599618   0.000000
     43         18.868015   0.000000
     44         19.095638   0.000000
     45         19.309875   0.000000
     46         19.557155   0.000000
     47         19.773856   0.000000
     48         20.035218   0.000000
     49         20.122592   0.000000
     50         20.935248   0.000000
     51         21.065504   0.000000
     52         21.156849   0.000000
     53         21.194835   0.000000
     54         21.767285   0.000000
     55         22.018075   0.000000
     56         22.624011   0.000000
     57         22.740329   0.000000
     58         23.198189   0.000000
     59         23.283600   0.000000
     60         23.597082   0.000000
     61         23.661771   0.000000
     62         24.555685   0.000000
     63         24.808108   0.000000
     64         25.386973   0.000000
 
  0.3157895E+00  0.0000000E+00  0.0000000E+00  0.1666667E-01
      1        -15.576188   1.000000
      2        -14.826635   1.000000
      3         -7.819255   1.000000
      4         -6.685329   1.000000
      5         -6.559994   1.000000
      6         -5.079897   1.000000
      7         -4.062851   1.000000
      8         -3.715587   1.000000
      9         -3.335185   1.000000
     10          0.368250   0.000000
     11          0.479300   0.000000
     12          1.482814   0.000000
     13          2.338193   0.000000
     14          4.591160   0.000000
     15          4.947863   0.000000