PROCAR lm decomposed
# of k-points:   60         # of bands:   64         # of ions:    3

 k-point     1 :    0.00000000 0.00000000 0.00000000     weight = 0.01666667

band     1 # energy  -16.95098671 # occ.  2.00000000
 
ion      s     py     pz     px    dxy    dyz    dz2    dxz  x2-y2    tot
    1  0.187  0.000  0.000  0.000  0.000  0.000  0.000  0.000  0.000  0.187
    2  0.259  0.000  0.007  0.000  0.000  0.000  0.000  0.000  0.000  0.266
    3  0.259  0.000  0.007  0.000  0.000  0.000  0.000  0.000  0.000  0.266
tot    0.704  0.000  0.014  0.000  0.000  0.000  0.000  0.000  0.000  0.718
 
band     2 # energy  -15.39217903 # occ.  2.00000000
 
ion      s     py     pz     px    dxy    dyz    dz2    dxz  x2-y2    tot
    1  0.000  0.000  0.071  0.000  0.000  0.000  0.000  0.000  0.000  0.071
    2  0.312  0.000  0.001  0.000  0.000  0.000  0.000  0.000  0.000  0.313
    3  0.312  0.000  0.001  0.000  0.000  0.000  0.000  0.000  0.000  0.313
tot    0.625  0.000  0.072  0.000  0.000  0.000  0.000  0.000  0.000  0.697
 
band     3 # energy   -8.55984216 # occ.  2.00000000
 
ion      s     py     pz     px    dxy    dyz    dz2    dxz  x2-y2    tot
    1  0.165  0.000  0.000  0.000  0.000  0.000  0.200  0.000  0.000  0.365
    2  0.030  0.000  0.114  0.000  0.000  0.000  0.000  0.000  0.000  0.144
    3  0.030  0.000  0.114  0.000  0.000  0.000  0.000  0.000  0.000  0.144
tot    0.225  0.000  0.227  0.000  0.000  0.000  0.200  0.000  0.000  0.652
 
band     4 # energy   -4.91086149 # occ.  2.00000000
 
ion      s     py     pz     px    dxy    dyz    dz2    dxz  x2-y2    tot
    1  0.000  0.006  0.000  0.002  0.150  0.000  0.000  0.000  0.450  0.608
    2  0.000  0.090  0.000  0.030  0.000  0.000  0.000  0.000  0.000  0.120
    3  0.000  0.090  0.000  0.030  0.000  0.000  0.000  0.000  0.000  0.120
tot    0.000  0.186  0.000  0.062  0.150  0.000  0.000  0.000  0.450  0.849
 
band     5 # energy   -4.91085766 # occ.  2.00000000
 
ion      s     py     pz     px    dxy    dyz    dz2    dxz  x2-y2    tot
    1  0.000  0.002  0.000  0.006  0.450  0.000  0.000  0.000  0.150  0.608
    2  0.000  0.030  0.000  0.090  0.000  0.000  0.000  0.000  0.000  0.120
    3  0.000  0.030  0.000  0.090  0.000  0.000  0.000  0.000  0.000  0.120
tot    0.000  0.062  0.000  0.186  0.450  0.000  0.000  0.000  0.150  0.849
 
band     6 # energy   -4.33337978 # occ.  2.00000000
 
ion      s     py     pz     px    dxy    dyz    dz2    dxz  x2-y2    tot
    1  0.000  0.000  0.067  0.000  0.000  0.000  0.000  0.000  0.000  0.067
    2  0.000  0.000  0.245  0.000  0.000  0.000  0.000  0.000  0.000  0.245
    3  0.000  0.000  0.245  0.000  0.000  0.000  0.000  0.000  0.000  0.245
tot    0.000  0.000  0.557  0.000  0.000  0.000  0.000  0.000  0.000  0.557
 
band     7 # energy   -3.65523560 # occ.  2.00000000
 
ion      s     py     pz     px    dxy    dyz    dz2    dxz  x2-y2    tot
    1  0.000  0.000  0.000  0.000  0.000  0.126  0.000  0.378  0.000  0.504
    2  0.000  0.043  0.000  0.130  0.000  0.000  0.000  0.000  0.000  0.173
    3  0.000  0.043  0.000  0.130  0.000  0.000  0.000  0.000  0.000  0.173
tot    0.000  0.087  0.000  0.260  0.000  0.126  0.000  0.378  0.000  0.850
 
band     8 # energy   -3.65522282 # occ.  2.00000000
 
ion      s     py     pz     px    dxy    dyz    dz2    dxz  x2-y2    tot
    1  0.000  0.000  0.000  0.000  0.000  0.378  0.000  0.126  0.000  0.504
    2  0.000  0.130  0.000  0.043  0.000  0.000  0.000  0.000  0.000  0.173
    3  0.000  0.130  0.000  0.043  0.000  0.000  0.000  0.000  0.000  0.173
tot    0.000  0.260  0.000  0.087  0.000  0.378  0.000  0.126  0.000  0.850
 
band     9 # energy   -2.28896194 # occ.  2.00000000
 
ion      s     py     pz     px    dxy    dyz    dz2    dxz  x2-y2    tot
    1  0.012  0.000  0.000  0.000  0.000  0.000  0.592  0.000  0.000  0.604
    2  0.002  0.000  0.069  0.000  0.000  0.000  0.000  0.000  0.000  0.071
    3  0.002  0.000  0.069  0.000  0.000  0.000  0.000  0.000  0.000  0.071
tot    0.017  0.000  0.137  0.000  0.000  0.000  0.592  0.000  0.000  0.747
 
band    10 # energy    0.84717972 # occ.  0.00000000
 
ion      s     py     pz     px    dxy    dyz    dz2    dxz  x2-y2    tot
    1  0.000  0.000  0.000  0.000  0.000  0.293  0.000  0.098  0.000  0.391
    2  0.000  0.124  0.000  0.041  0.000  0.000  0.000  0.000  0.000  0.165
    3  0.000  0.124  0.000  0.041  0.000  0.000  0.000  0.000  0.000  0.165
tot    0.000  0.247  0.000  0.082  0.000  0.293  0.000  0.098  0.000  0.721
 
band    11 # energy    0.84718886 # occ.  0.00000000
 
ion      s     py     pz     px    dxy    dyz    dz2    dxz  x2-y2    tot
    1  0.000  0.000  0.000  0.000  0.000  0.098  0.000  0.293  0.000  0.391
    2  0.000  0.041  0.000  0.124  0.000  0.000  0.000  0.000  0.000  0.165
    3  0.000  0.041  0.000  0.124  0.000  0.000  0.000  0.000  0.000  0.165
tot    0.000  0.082  0.000  0.247  0.000  0.098  0.000  0.293  0.000  0.721
 
band    12 # energy    0.96465132 # occ.  0.00000000
 
ion      s     py     pz     px    dxy    dyz    dz2    dxz  x2-y2    tot
    1  0.000  0.005  0.000  0.016  0.227  0.000  0.000  0.000  0.076  0.324
    2  0.000  0.056  0.000  0.169  0.000  0.000  0.000  0.000  0.000  0.225
    3  0.000  0.056  0.000  0.169  0.000  0.000  0.000  0.000  0.000  0.225
tot    0.000  0.118  0.000  0.354  0.227  0.000  0.000  0.000  0.076  0.774
 
band    13 # energy    0.96465528 # occ.  0.00000000
 
ion      s     py     pz     px    dxy    dyz    dz2    dxz  x2-y2    tot
    1  0.000  0.016  0.000  0.005  0.076  0.000  0.000  0.000  0.227  0.324
    2  0.000  0.169  0.000  0.056  0.000  0.000  0.000  0.000  0.000  0.225
    3  0.000  0.169  0.000  0.056  0.000  0.000  0.000  0.000  0.000  0.225
tot    0.000  0.354  0.000  0.118  0.076  0.000  0.000  0.000  0.227  0.774
 
band    14 # energy    2.90007562 # occ.  0.00000000
 
ion      s     py     pz     px    dxy    dyz    dz2    dxz  x2-y2    tot
    1  0.072  0.000  0.000  0.000  0.000  0.000  0.029  0.000  0.000  0.101
    2  0.047  0.000  0.000  0.000  0.000  0.000  0.000  0.000  0.000  0.047
    3  0.047  0.000  0.000  0.000  0.000  0.000  0.000  0.000  0.000  0.047
tot    0.166  0.000  0.000  0.000  0.000  0.000  0.029  0.000  0.000  0.195
 
band    15 # energy    3.20183884 # occ.  0.00000000
 
ion      s     py     pz     px    dxy    dyz    dz2    dxz  x2-y2    tot
    1  0.000  0.000  0.002  0.000  0.000  0.000  0.000  0.000  0.000  0.002
    2  0.003  0.000  0.017  0.000  0.000  0.000  0.000  0.000  0.000  0.020
    3  0.003  0.000  0.017  0.000  0.000  0.000  0.000  0.000  0.000  0.020
tot    0.005  0.000  0.036  0.000  0.000  0.000  0.000  0.000  0.000  0.042
 
band    16 # energy    3.57236178 # occ.  0.00000000
 
ion      s     py     pz     px    dxy    dyz    dz2    dxz  x2-y2    tot
    1  0.088  0.000  0.000  0.000  0.000  0.000  0.001  0.000  0.000  0.090
    2  0.046  0.000  0.025  0.000  0.000  0.000  0.000  0.000  0.000  0.071
    3  0.046  0.000  0.025  0.000  0.000  0.000  0.000  0.000  0.000  0.071
tot    0.181  0.000  0.049  0.000  0.000  0.000  0.001  0.000  0.000  0.231
 
band    17 # energy    4.13172252 # occ.  0.00000000
 
ion      s     py     pz     px    dxy    dyz    dz2    dxz  x2-y2    tot
    1  0.013  0.000  0.000  0.000  0.000  0.000  0.007  0.000  0.000  0.019
    2  0.004  0.000  0.023  0.000  0.000  0.000  0.000  0.000  0.000  0.027
    3  0.004  0.000  0.023  0.000  0.000  0.000  0.000  0.000  0.000  0.027
tot    0.021  0.000  0.047  0.000  0.000  0.000  0.007  0.000  0.000  0.074
 
band    18 # energy    5.05501127 # occ.  0.00000000
 
ion      s     py     pz     px    dxy    dyz    dz2    dxz  x2-y2    tot
    1  0.000  0.000  0.001  0.000  0.000  0.000  0.000  0.000  0.000  0.001
    2  0.002  0.000  0.013  0.000  0.000  0.000  0.000  0.000  0.000  0.015
    3  0.002  0.000  0.013  0.000  0.000  0.000  0.000  0.000  0.000  0.015
tot    0.005  0.000  0.027  0.000  0.000  0.000  0.000  0.000  0.000  0.031
 
band    19 # energy    6.19685452 # occ.  0.00000000
 
ion      s     py     pz     px    dxy    dyz    dz2    dxz  x2-y2    tot
    1  0.003  0.000  0.000  0.000  0.000  0.000  0.021  0.000  0.000  0.024
    2  0.004  0.000  0.008  0.000  0.000  0.000  0.000  0.000  0.000  0.012
    3  0.004  0.000  0.008  0.000  0.000  0.000  0.000  0.000  0.000  0.012
tot    0.011  0.000  0.017  0.000  0.000  0.000  0.021  0.000  0.000  0.048
 
band    20 # energy    6.73290935 # occ.  0.00000000
 
ion      s     py     pz     px    dxy    dyz    dz2    dxz  x2-y2    tot
    1  0.000  0.000  0.092  0.000  0.000  0.000  0.000  0.000  0.000  0.092
    2  0.081  0.000  0.000  0.000  0.000  0.000  0.000  0.000  0.000  0.081
    3  0.081  0.000  0.000  0.000  0.000  0.000  0.000  0.000  0.000  0.081
tot    0.162  0.000  0.092  0.000  0.000  0.000  0.000  0.000  0.000  0.253
 
band    21 # energy    7.86762241 # occ.  0.00000000
 
ion      s     py     pz     px    dxy    dyz    dz2    dxz  x2-y2    tot
    1  0.000  0.000  0.003  0.000  0.000  0.000  0.000  0.000  0.000  0.003
    2  0.009  0.000  0.015  0.000  0.000  0.000  0.000  0.000  0.000  0.024
    3  0.009  0.000  0.015  0.000  0.000  0.000  0.000  0.000  0.000  0.024
tot    0.019  0.000  0.033  0.000  0.000  0.000  0.000  0.000  0.000  0.052
 
band    22 # energy    8.63592786 # occ.  0.00000000
 
ion      s     py     pz     px    dxy    dyz    dz2    dxz  x2-y2    tot
    1  0.000  0.108  0.000  0.036  0.004  0.000  0.000  0.000  0.013  0.162
    2  0.000  0.003  0.000  0.001  0.000  0.000  0.000  0.000  0.000  0.004
    3  0.000  0.003  0.000  0.001  0.000  0.000  0.000  0.000  0.000  0.004
tot    0.000  0.114  0.000  0.038  0.004  0.000  0.000  0.000  0.013  0.170
 
band    23 # energy    8.63593033 # occ.  0.00000000
 
ion      s     py     pz     px    dxy    dyz    dz2    dxz  x2-y2    tot
    1  0.000  0.036  0.000  0.108  0.013  0.000  0.000  0.000  0.004  0.162
    2  0.000  0.001  0.000  0.003  0.000  0.000  0.000  0.000  0.000  0.004
    3  0.000  0.001  0.000  0.003  0.000  0.000  0.000  0.000  0.000  0.004
tot    0.000  0.038  0.000  0.114  0.013  0.000  0.000  0.000  0.004  0.170
 
band    24 # energy    9.03933942 # occ.  0.00000000
 
ion      s     py     pz     px    dxy    dyz    dz2    dxz  x2-y2    tot
    1  0.037  0.000  0.000  0.000  0.000  0.000  0.052  0.000  0.000  0.090
    2  0.010  0.000  0.002  0.000  0.000  0.000  0.000  0.000  0.000  0.012
    3  0.010  0.000  0.002  0.000  0.000  0.000  0.000  0.000  0.000  0.012
tot    0.057  0.000  0.004  0.000  0.000  0.000  0.052  0.000  0.000  0.114
 
band    25 # energy   10.71245059 # occ.  0.00000000
 
ion      s     py     pz     px    dxy    dyz    dz2    dxz  x2-y2    tot
    1  0.078  0.000  0.000  0.000  0.000  0.000  0.091  0.000  0.000  0.169
    2  0.002  0.000  0.082  0.000  0.000  0.000  0.000  0.000  0.000  0.084
    3  0.002  0.000  0.082  0.000  0.000  0.000  0.000  0.000  0.000  0.084
tot    0.082  0.000  0.164  0.000  0.000  0.000  0.091  0.000  0.000  0.337
 
band    26 # energy   10.89546711 # occ.  0.00000000
 
ion      s     py     pz     px    dxy    dyz    dz2    dxz  x2-y2    tot
    1  0.000  0.000  0.000  0.000  0.000  0.019  0.000  0.057  0.000  0.076
    2  0.000  0.002  0.000  0.005  0.000  0.000  0.000  0.000  0.000  0.007
    3  0.000  0.002  0.000  0.005  0.000  0.000  0.000  0.000  0.000  0.007
tot    0.000  0.003  0.000  0.010  0.000  0.019  0.000  0.057  0.000  0.090
 
band    27 # energy   10.89547322 # occ.  0.00000000
 
ion      s     py     pz     px    dxy    dyz    dz2    dxz  x2-y2    tot
    1  0.000  0.000  0.000  0.000  0.000  0.057  0.000  0.019  0.000  0.076
    2  0.000  0.005  0.000  0.002  0.000  0.000  0.000  0.000  0.000  0.007
    3  0.000  0.005  0.000  0.002  0.000  0.000  0.000  0.000  0.000  0.007
tot    0.000  0.010  0.000  0.003  0.000  0.057  0.000  0.019  0.000  0.090
 
band    28 # energy   11.63768239 # occ.  0.00000000
 
ion      s     py     pz     px    dxy    dyz    dz2    dxz  x2-y2    tot
    1  0.000  0.000  0.001  0.000  0.000  0.000  0.000  0.000  0.000  0.001
    2  0.010  0.000  0.010  0.000  0.000  0.000  0.000  0.000  0.000  0.021
    3  0.010  0.000  0.010  0.000  0.000  0.000  0.000  0.000  0.000  0.021
tot    0.020  0.000  0.021  0.000  0.000  0.000  0.000  0.000  0.000  0.042
 
band    29 # energy   12.95437661 # occ.  0.00000000
 
ion      s     py     pz     px    dxy    dyz    dz2    dxz  x2-y2    tot
    1  0.001  0.000  0.000  0.000  0.000  0.000  0.007  0.000  0.000  0.009
    2  0.025  0.000  0.003  0.000  0.000  0.000  0.000  0.000  0.000  0.028
    3  0.025  0.000  0.003  0.000  0.000  0.000  0.000  0.000  0.000  0.028
tot    0.051  0.000  0.006  0.000  0.000  0.000  0.007  0.000  0.000  0.065
 
band    30 # energy   13.91397291 # occ.  0.00000000
 
ion      s     py     pz     px    dxy    dyz    dz2    dxz  x2-y2    tot
    1  0.000  0.000  0.002  0.000  0.000  0.000  0.000  0.000  0.000  0.002
    2  0.004  0.000  0.027  0.000  0.000  0.000  0.000  0.000  0.000  0.031
    3  0.004  0.000  0.027  0.000  0.000  0.000  0.000  0.000  0.000  0.031
tot    0.008  0.000  0.055  0.000  0.000  0.000  0.000  0.000  0.000  0.063
 
band    31 # energy   14.44867232 # occ.  0.00000000
 
ion      s     py     pz     px    dxy    dyz    dz2    dxz  x2-y2    tot
    1  0.000  0.000  0.000  0.000  0.000  0.076  0.000  0.025  0.000  0.101
    2  0.000  0.000  0.000  0.000  0.000  0.000  0.000  0.000  0.000  0.000
    3  0.000  0.000  0.000  0.000  0.000  0.000  0.000  0.000  0.000  0.000
tot    0.000  0.000  0.000  0.000  0.000  0.076  0.000  0.025  0.000  0.101
 
band    32 # energy   14.44867731 # occ.  0.00000000
 
ion      s     py     pz     px    dxy    dyz    dz2    dxz  x2-y2    tot
    1  0.000  0.000  0.000  0.000  0.000  0.025  0.000  0.076  0.000  0.101
    2  0.000  0.000  0.000  0.000  0.000  0.000  0.000  0.000  0.000  0.000
    3  0.000  0.000  0.000  0.000  0.000  0.000  0.000  0.000  0.000  0.000
tot    0.000  0.000  0.000  0.000  0.000  0.025  0.000  0.076  0.000  0.101
 
band    33 # energy   14.78420914 # occ.  0.00000000
 
ion      s     py     pz     px    dxy    dyz    dz2    dxz  x2-y2    tot
    1  0.000  0.022  0.000  0.067  0.096  0.000  0.000  0.000  0.032  0.218
    2  0.000  0.000  0.000  0.001  0.000  0.000  0.000  0.000  0.000  0.001
    3  0.000  0.000  0.000  0.001  0.000  0.000  0.000  0.000  0.000  0.001
tot    0.000  0.023  0.000  0.069  0.096  0.000  0.000  0.000  0.032  0.219
 
band    34 # energy   14.78421154 # occ.  0.00000000
 
ion      s     py     pz     px    dxy    dyz    dz2    dxz  x2-y2    tot
    1  0.000  0.067  0.000  0.022  0.032  0.000  0.000  0.000  0.096  0.218
    2  0.000  0.001  0.000  0.000  0.000  0.000  0.000  0.000  0.000  0.001
    3  0.000  0.001  0.000  0.000  0.000  0.000  0.000  0.000  0.000  0.001
tot    0.000  0.069  0.000  0.023  0.032  0.000  0.000  0.000  0.096  0.219
 
band    35 # energy   15.82184909 # occ.  0.00000000
 
ion      s     py     pz     px    dxy    dyz    dz2    dxz  x2-y2    tot
    1  0.024  0.000  0.000  0.000  0.000  0.000  0.042  0.000  0.000  0.066
    2  0.004  0.000  0.014  0.000  0.000  0.000  0.000  0.000  0.000  0.018
    3  0.004  0.000  0.014  0.000  0.000  0.000  0.000  0.000  0.000  0.018
tot    0.032  0.000  0.029  0.000  0.000  0.000  0.042  0.000  0.000  0.103
 
band    36 # energy   16.25775301 # occ.  0.00000000
 
ion      s     py     pz     px    dxy    dyz    dz2    dxz  x2-y2    tot
    1  0.000  0.000  0.006  0.000  0.000  0.000  0.000  0.000  0.000  0.006
    2  0.005  0.000  0.014  0.000  0.000  0.000  0.000  0.000  0.000  0.020
    3  0.005  0.000  0.014  0.000  0.000  0.000  0.000  0.000  0.000  0.020
tot    0.011  0.000  0.035  0.000  0.000  0.000  0.000  0.000  0.000  0.046
 
band    37 # energy   17.36456785 # occ.  0.00000000
 
ion      s     py     pz     px    dxy    dyz    dz2    dxz  x2-y2    tot
    1  0.000  0.000  0.300  0.000  0.000  0.000  0.000  0.000  0.000  0.300
    2  0.016  0.000  0.024  0.000  0.000  0.000  0.000  0.000  0.000  0.040
    3  0.016  0.000  0.024  0.000  0.000  0.000  0.000  0.000  0.000  0.040
tot    0.032  0.000  0.348  0.000  0.000  0.000  0.000  0.000  0.000  0.380
 
band    38 # energy   18.22525932 # occ.  0.00000000
 
ion      s     py     pz     px    dxy    dyz    dz2    dxz  x2-y2    tot
    1  0.003  0.000  0.000  0.000  0.000  0.000  0.073  0.000  0.000  0.076
    2  0.009  0.000  0.001  0.000  0.000  0.000  0.000  0.000  0.000  0.010
    3  0.009  0.000  0.001  0.000  0.000  0.000  0.000  0.000  0.000  0.010
tot    0.022  0.000  0.002  0.000  0.000  0.000  0.073  0.000  0.000  0.097
 
band    39 # energy   20.80441908 # occ.  0.00000000
 
ion      s     py     pz     px    dxy    dyz    dz2    dxz  x2-y2    tot
    1  0.000  0.160  0.000  0.053  0.012  0.000  0.000  0.000  0.035  0.260
    2  0.000  0.001  0.000  0.000  0.000  0.000  0.000  0.000  0.000  0.002
    3  0.000  0.001  0.000  0.000  0.000  0.000  0.000  0.000  0.000  0.002
tot    0.000  0.163  0.000  0.054  0.012  0.000  0.000  0.000  0.035  0.264
 
band    40 # energy   20.80442107 # occ.  0.00000000
 
ion      s     py     pz     px    dxy    dyz    dz2    dxz  x2-y2    tot
    1  0.000  0.053  0.000  0.160  0.035  0.000  0.000  0.000  0.012  0.260
    2  0.000  0.000  0.000  0.001  0.000  0.000  0.000  0.000  0.000  0.002
    3  0.000  0.000  0.000  0.001  0.000  0.000  0.000  0.000  0.000  0.002
tot    0.000  0.054  0.000  0.163  0.035  0.000  0.000  0.000  0.012  0.264
 
band    41 # energy   21.11227275 # occ.  0.00000000
 
ion      s     py     pz     px    dxy    dyz    dz2    dxz  x2-y2    tot
    1  0.027  0.000  0.000  0.000  0.000  0.000  0.003  0.000  0.000  0.030
    2  0.004  0.000  0.033  0.000  0.000  0.000  0.000  0.000  0.000  0.037
    3  0.004  0.000  0.033  0.000  0.000  0.000  0.000  0.000  0.000  0.037
tot    0.035  0.000  0.066  0.000  0.000  0.000  0.003  0.000  0.000  0.104
 
band    42 # energy   21.56981608 # occ.  0.00000000
 
ion      s     py     pz     px    dxy    dyz    dz2    dxz  x2-y2    tot
    1  0.000  0.000  0.000  0.000  0.000  0.000  0.000  0.000  0.000  0.000
    2  0.008  0.000  0.000  0.000  0.000  0.000  0.000  0.000  0.000  0.008
    3  0.008  0.000  0.000  0.000  0.000  0.000  0.000  0.000  0.000  0.008
tot    0.015  0.000  0.000  0.000  0.000  0.000  0.000  0.000  0.000  0.015
 
band    43 # energy   22.40618510 # occ.  0.00000000
 
ion      s     py     pz     px    dxy    dyz    dz2    dxz  x2-y2    tot
    1  0.000  0.000  0.000  0.000  0.000  0.008  0.000  0.023  0.000  0.031
    2  0.000  0.001  0.000  0.004  0.000  0.000  0.000  0.000  0.000  0.005
    3  0.000  0.001  0.000  0.004  0.000  0.000  0.000  0.000  0.000  0.005
tot    0.000  0.003  0.000  0.008  0.000  0.008  0.000  0.023  0.000  0.042
 
band    44 # energy   22.40618850 # occ.  0.00000000
 
ion      s     py     pz     px    dxy    dyz    dz2    dxz  x2-y2    tot
    1  0.000  0.000  0.000  0.000  0.000  0.023  0.000  0.008  0.000  0.031
    2  0.000  0.004  0.000  0.001  0.000  0.000  0.000  0.000  0.000  0.005
    3  0.000  0.004  0.000  0.001  0.000  0.000  0.000  0.000  0.000  0.005
tot    0.000  0.008  0.000  0.003  0.000  0.023  0.000  0.008  0.000  0.042
 
band    45 # energy   22.77545801 # occ.  0.00000000
 
ion      s     py     pz     px    dxy    dyz    dz2    dxz  x2-y2    tot
    1  0.000  0.000  0.035  0.000  0.000  0.000  0.000  0.000  0.000  0.035
    2  0.004  0.000  0.001  0.000  0.000  0.000  0.000  0.000  0.000  0.005
    3  0.004  0.000  0.001  0.000  0.000  0.000  0.000  0.000  0.000  0.005
tot    0.007  0.000  0.037  0.000  0.000  0.000  0.000  0.000  0.000  0.044
 
band    46 # energy   22.98190282 # occ.  0.00000000
 
ion      s     py     pz     px    dxy    dyz    dz2    dxz  x2-y2    tot
    1  0.000  0.000  0.000  0.000  0.000  0.000  0.021  0.000  0.000  0.021
    2  0.006  0.000  0.002  0.000  0.000  0.000  0.000  0.000  0.000  0.009
    3  0.006  0.000  0.002  0.000  0.000  0.000  0.000  0.000  0.000  0.009
tot    0.013  0.000  0.004  0.000  0.000  0.000  0.021  0.000  0.000  0.038
 
band    47 # energy   23.00323790 # occ.  0.00000000
 
ion      s     py     pz     px    dxy    dyz    dz2    dxz  x2-y2    tot
    1  0.000  0.018  0.000  0.006  0.007  0.000  0.000  0.000  0.021  0.053
    2  0.000  0.003  0.000  0.001  0.000  0.000  0.000  0.000  0.000  0.004
    3  0.000  0.003  0.000  0.001  0.000  0.000  0.000  0.000  0.000  0.004
tot    0.000  0.025  0.000  0.008  0.007  0.000  0.000  0.000  0.021  0.061
 
band    48 # energy   23.00325130 # occ.  0.00000000
 
ion      s     py     pz     px    dxy    dyz    dz2    dxz  x2-y2    tot
    1  0.000  0.006  0.000  0.018  0.021  0.000  0.000  0.000  0.007  0.053
    2  0.000  0.001  0.000  0.003  0.000  0.000  0.000  0.000  0.000  0.004
    3  0.000  0.001  0.000  0.003  0.000  0.000  0.000  0.000  0.000  0.004
tot    0.000  0.008  0.000  0.025  0.021  0.000  0.000  0.000  0.007  0.061
 
band    49 # energy   23.12184258 # occ.  0.00000000
 
ion      s     py     pz     px    dxy    dyz    dz2    dxz  x2-y2    tot
    1  0.000  0.000  0.000  0.000  0.000  0.005  0.000  0.002  0.000  0.007
    2  0.000  0.002  0.000  0.001  0.000  0.000  0.000  0.000  0.000  0.003
    3  0.000  0.002  0.000  0.001  0.000  0.000  0.000  0.000  0.000  0.003
tot    0.000  0.005  0.000  0.002  0.000  0.005  0.000  0.002  0.000  0.014
 
band    50 # energy   23.12185020 # occ.  0.00000000
 
ion      s     py     pz     px    dxy    dyz    dz2    dxz  x2-y2    tot
    1  0.000  0.000  0.000  0.000  0.000  0.002  0.000  0.005  0.000  0.007
    2  0.000  0.001  0.000  0.002  0.000  0.000  0.000  0.000  0.000  0.003
    3  0.000  0.001  0.000  0.002  0.000  0.000  0.000  0.000  0.000  0.003
tot    0.000  0.002  0.000  0.005  0.000  0.002  0.000  0.005  0.000  0.014
 
band    51 # energy   23.32927225 # occ.  0.00000000
 
ion      s     py     pz     px    dxy    dyz    dz2    dxz  x2-y2    tot
    1  0.019  0.000  0.000  0.000  0.000  0.000  0.022  0.000  0.000  0.040
    2  0.001  0.000  0.001  0.000  0.000  0.000  0.000  0.000  0.000  0.002
    3  0.001  0.000  0.001  0.000  0.000  0.000  0.000  0.000  0.000  0.002
tot    0.020  0.000  0.003  0.000  0.000  0.000  0.022  0.000  0.000  0.044
 
band    52 # energy   23.51211509 # occ.  0.00000000
 
ion      s     py     pz     px    dxy    dyz    dz2    dxz  x2-y2    tot
    1  0.000  0.000  0.019  0.000  0.000  0.000  0.000  0.000  0.000  0.019
    2  0.000  0.000  0.007  0.000  0.000  0.000  0.000  0.000  0.000  0.007
    3  0.000  0.000  0.007  0.000  0.000  0.000  0.000  0.000  0.000  0.007
tot    0.000  0.000  0.034  0.000  0.000  0.000  0.000  0.000  0.000  0.034
 
band    53 # energy   23.62522363 # occ.  0.00000000
 
ion      s     py     pz     px    dxy    dyz    dz2    dxz  x2-y2    tot
    1  0.000  0.009  0.000  0.027  0.008  0.000  0.000  0.000  0.003  0.047
    2  0.000  0.000  0.000  0.000  0.000  0.000  0.000  0.000  0.000  0.000
    3  0.000  0.000  0.000  0.000  0.000  0.000  0.000  0.000  0.000  0.000
tot    0.000  0.009  0.000  0.027  0.008  0.000  0.000  0.000  0.003  0.047
 
band    54 # energy   23.62528578 # occ.  0.00000000
 
ion      s     py     pz     px    dxy    dyz    dz2    dxz  x2-y2    tot
    1  0.000  0.027  0.000  0.009  0.003  0.000  0.000  0.000  0.008  0.047
    2  0.000  0.000  0.000  0.000  0.000  0.000  0.000  0.000  0.000  0.000
    3  0.000  0.000  0.000  0.000  0.000  0.000  0.000  0.000  0.000  0.000
tot    0.000  0.027  0.000  0.009  0.003  0.000  0.000  0.000  0.008  0.047
 
band    55 # energy   24.04037304 # occ.  0.00000000
 
ion      s     py     pz     px    dxy    dyz    dz2    dxz  x2-y2    tot
    1  0.001  0.000  0.000  0.000  0.000  0.000  0.015  0.000  0.000  0.016
    2  0.002  0.000  0.000  0.000  0.000  0.000  0.000  0.000  0.000  0.003
    3  0.002  0.000  0.000  0.000  0.000  0.000  0.000  0.000  0.000  0.003
tot    0.006  0.000  0.001  0.000  0.000  0.000  0.015  0.000  0.000  0.021
 
band    56 # energy   24.05346713 # occ.  0.00000000
 
ion      s     py     pz     px    dxy    dyz    dz2    dxz  x2-y2    tot
    1  0.000  0.008  0.000  0.003  0.003  0.000  0.000  0.000  0.009  0.023
    2  0.000  0.001  0.000  0.000  0.000  0.000  0.000  0.000  0.000  0.002
    3  0.000  0.001  0.000  0.000  0.000  0.000  0.000  0.000  0.000  0.002
tot    0.000  0.011  0.000  0.004  0.003  0.000  0.000  0.000  0.009  0.027
 
band    57 # energy   24.05394531 # occ.  0.00000000
 
ion      s     py     pz     px    dxy    dyz    dz2    dxz  x2-y2    tot
    1  0.000  0.003  0.000  0.008  0.009  0.000  0.000  0.000  0.003  0.023
    2  0.000  0.000  0.000  0.001  0.000  0.000  0.000  0.000  0.000  0.002
    3  0.000  0.000  0.000  0.001  0.000  0.000  0.000  0.000  0.000  0.002
tot    0.000  0.004  0.000  0.011  0.009  0.000  0.000  0.000  0.003  0.027
 
band    58 # energy   24.14142678 # occ.  0.00000000
 
ion      s     py     pz     px    dxy    dyz    dz2    dxz  x2-y2    tot
    1  0.044  0.000  0.000  0.000  0.000  0.000  0.019  0.000  0.000  0.063
    2  0.000  0.000  0.000  0.000  0.000  0.000  0.000  0.000  0.000  0.000
    3  0.000  0.000  0.000  0.000  0.000  0.000  0.000  0.000  0.000  0.000
tot    0.045  0.000  0.000  0.000  0.000  0.000  0.019  0.000  0.000  0.064
 
band    59 # energy   24.56932914 # occ.  0.00000000
 
ion      s     py     pz     px    dxy    dyz    dz2    dxz  x2-y2    tot
    1  0.000  0.019  0.000  0.057  0.020  0.000  0.000  0.000  0.007  0.103
    2  0.000  0.000  0.000  0.000  0.000  0.000  0.000  0.000  0.000  0.000
    3  0.000  0.000  0.000  0.000  0.000  0.000  0.000  0.000  0.000  0.000
tot    0.000  0.019  0.000  0.057  0.020  0.000  0.000  0.000  0.007  0.103
 
band    60 # energy   24.56948171 # occ.  0.00000000
 
ion      s     py     pz     px    dxy    dyz    dz2    dxz  x2-y2    tot
    1  0.000  0.057  0.000  0.019  0.007  0.000  0.000  0.000  0.020  0.103
    2  0.000  0.000  0.000  0.000  0.000  0.000  0.000  0.000  0.000  0.000
    3  0.000  0.000  0.000  0.000  0.000  0.000  0.000  0.000  0.000  0.000
tot    0.000  0.057  0.000  0.019  0.007  0.000  0.000  0.000  0.020  0.103
 
band    61 # energy   24.57395177 # occ.  0.00000000
 
ion      s     py     pz     px    dxy    dyz    dz2    dxz  x2-y2    tot
    1  0.000  0.000  0.000  0.000  0.000  0.012  0.000  0.004  0.000  0.016
    2  0.000  0.002  0.000  0.001  0.000  0.000  0.000  0.000  0.000  0.002
    3  0.000  0.002  0.000  0.001  0.000  0.000  0.000  0.000  0.000  0.002
tot    0.000  0.003  0.000  0.001  0.000  0.012  0.000  0.004  0.000  0.020
 
band    62 # energy   24.57398133 # occ.  0.00000000
 
ion      s     py     pz     px    dxy    dyz    dz2    dxz  x2-y2    tot
    1  0.000  0.000  0.000  0.000  0.000  0.004  0.000  0.012  0.000  0.016
    2  0.000  0.001  0.000  0.002  0.000  0.000  0.000  0.000  0.000  0.002
    3  0.000  0.001  0.000  0.002  0.000  0.000  0.000  0.000  0.000  0.002
tot    0.000  0.001  0.000  0.003  0.000  0.004  0.000  0.012  0.000  0.020
 
band    63 # energy   24.68632316 # occ.  0.00000000
 
ion      s     py     pz     px    dxy    dyz    dz2    dxz  x2-y2    tot
    1  0.000  0.000  0.021  0.000  0.000  0.000  0.000  0.000  0.000  0.021
    2  0.001  0.000  0.000  0.000  0.000  0.000  0.000  0.000  0.000  0.001
    3  0.001  0.000  0.000  0.000  0.000  0.000  0.000  0.000  0.000  0.001
tot    0.002  0.000  0.021  0.000  0.000  0.000  0.000  0.000  0.000  0.023
 
band    64 # energy   25.03206746 # occ.  0.00000000
 
ion      s     py     pz     px    dxy    dyz    dz2    dxz  x2-y2    tot
    1  0.000  0.000  0.000  0.000  0.000  0.000  0.000  0.004  0.000  0.004
    2  0.000  0.000  0.000  0.003  0.000  0.000  0.000  0.000  0.000  0.003
    3  0.000  0.000  0.000  0.003  0.000  0.000  0.000  0.000  0.000  0.003
tot    0.000  0.000  0.000  0.006  0.000  0.000  0.000  0.004  0.000  0.010
 

 k-point     2 :    0.02631579 0.00000000 0.00000000     weight = 0.01666667

band     1 # energy  -16.93947147 # occ.  2.00000000
 
ion      s     py     pz     px    dxy    dyz    dz2    dxz  x2-y2    tot
    1  0.186  0.000  0.000  0.000  0.000  0.000  0.000  0.000  0.000  0.187
    2  0.259  0.000  0.007  0.000  0.000  0.000  0.000  0.000  0.000  0.266
    3  0.259  0.000  0.007  0.000  0.000  0.000  0.000  0.000  0.000  0.266
tot    0.704  0.000  0.014  0.000  0.000  0.000  0.000  0.000  0.000  0.718
 
band     2 # energy  -15.38732132 # occ.  2.00000000
 
ion      s     py     pz     px    dxy    dyz    dz2    dxz  x2-y2    tot
    1  0.000  0.000  0.071  0.000  0.000  0.000  0.000  0.000  0.000  0.072
    2  0.312  0.000  0.001  0.000  0.000  0.000  0.000  0.000  0.000  0.313
    3  0.312  0.000  0.001  0.000  0.000  0.000  0.000  0.000  0.000  0.313
tot    0.625  0.000  0.072  0.000  0.000  0.000  0.000  0.000  0.000  0.698
 
band     3 # energy   -8.54558151 # occ.  2.00000000
 
ion      s     py     pz     px    dxy    dyz    dz2    dxz  x2-y2    tot
    1  0.164  0.000  0.000  0.000  0.000  0.000  0.200  0.000  0.000  0.364
    2  0.030  0.000  0.114  0.000  0.000  0.000  0.000  0.000  0.000  0.144
    3  0.030  0.000  0.114  0.000  0.000  0.000  0.000  0.000  0.000  0.144
tot    0.224  0.000  0.228  0.000  0.000  0.000  0.200  0.000  0.000  0.652
 
band     4 # energy   -4.94329888 # occ.  2.00000000
 
ion      s     py     pz     px    dxy    dyz    dz2    dxz  x2-y2    tot
    1  0.002  0.002  0.000  0.006  0.446  0.000  0.000  0.000  0.149  0.605
    2  0.001  0.030  0.000  0.090  0.000  0.000  0.000  0.000  0.000  0.121
    3  0.001  0.030  0.000  0.090  0.000  0.000  0.000  0.000  0.000  0.121
tot    0.003  0.062  0.000  0.186  0.446  0.000  0.000  0.000  0.149  0.846
 
band     5 # energy   -4.89919478 # occ.  2.00000000
 
ion      s     py     pz     px    dxy    dyz    dz2    dxz  x2-y2    tot