   3   3   1   0
  0.5740403E+02  0.3153200E-09  0.3153200E-09  0.2000000E-08  0.5000000E-15
  1.000000000000000E-004
  CAR 
 Anon                                    
     29.98449731    -21.39318472 2000     -2.34818085      1.00000000
    -21.393  0.0000E+00  0.0000E+00  0.0000E+00  0.0000E+00
    -21.367  0.0000E+00  0.0000E+00  0.0000E+00  0.0000E+00
    -21.342  0.0000E+00  0.0000E+00  0.0000E+00  0.0000E+00
    -21.316  0.0000E+00  0.0000E+00  0.0000E+00  0.0000E+00
    -21.290  0.0000E+00  0.0000E+00  0.0000E+00  0.0000E+00
    -21.265  0.0000E+00  0.0000E+00  0.0000E+00  0.0000E+00
    -21.239  0.0000E+00  0.0000E+00  0.0000E+00  0.0000E+00
    -21.213  0.0000E+00  0.0000E+00  0.0000E+00  0.0000E+00
    -21.188  0.0000E+00  0.0000E+00  0.0000E+00  0.0000E+00
    -21.162  0.0000E+00  0.0000E+00  0.0000E+00  0.0000E+00
    -21.136  0.0000E+00  0.0000E+00  0.0000E+00  0.0000E+00
    -21.110  0.0000E+00  0.0000E+00  0.0000E+00  0.0000E+00
    -21.085  0.0000E+00  0.0000E+00  0.0000E+00  0.0000E+00
    -21.059  0.0000E+00  0.0000E+00  0.0000E+00  0.0000E+00
    -21.033  0.0000E+00  0.0000E+00  0.0000E+00  0.0000E+00
    -21.008  0.0000E+00  0.0000E+00  0.0000E+00  0.0000E+00
    -20.982  0.0000E+00  0.0000E+00  0.0000E+00  0.0000E+00
    -20.956  0.0000E+00  0.0000E+00  0.0000E+00  0.0000E+00
    -20.931  0.0000E+00  0.0000E+00  0.0000E+00  0.0000E+00
    -20.905  0.0000E+00  0.0000E+00  0.0000E+00  0.0000E+00
    -20.879  0.0000E+00  0.0000E+00  0.0000E+00  0.0000E+00
    -20.853  0.0000E+00  0.0000E+00  0.0000E+00  0.0000E+00
    -20.828  0.0000E+00  0.0000E+00  0.0000E+00  0.0000E+00
    -20.802  0.0000E+00  0.0000E+00  0.0000E+00  0.0000E+00
    -20.776  0.0000E+00  0.0000E+00  0.0000E+00  0.0000E+00
    -20.751  0.0000E+00  0.0000E+00  0.0000E+00  0.0000E+00
    -20.725  0.0000E+00  0.0000E+00  0.0000E+00  0.0000E+00
    -20.699  0.0000E+00  0.0000E+00  0.0000E+00  0.0000E+00
    -20.674  0.0000E+00  0.0000E+00  0.0000E+00  0.0000E+00
    -20.648  0.0000E+00  0.0000E+00  0.0000E+00  0.0000E+00
    -20.622  0.0000E+00  0.0000E+00  0.0000E+00  0.0000E+00
    -20.596  0.0000E+00  0.0000E+00  0.0000E+00  0.0000E+00
    -20.571  0.0000E+00  0.0000E+00  0.0000E+00  0.0000E+00
    -20.545  0.0000E+00  0.0000E+00  0.0000E+00  0.0000E+00
    -20.519  0.0000E+00  0.0000E+00  0.0000E+00  0.0000E+00
    -20.494  0.0000E+00  0.0000E+00  0.0000E+00  0.0000E+00
    -20.468  0.0000E+00  0.0000E+00  0.0000E+00  0.0000E+00
    -20.442  0.0000E+00  0.0000E+00  0.0000E+00  0.0000E+00
    -20.417  0.0000E+00  0.0000E+00  0.0000E+00  0.0000E+00
    -20.391  0.0000E+00  0.0000E+00  0.0000E+00  0.0000E+00
    -20.365  0.0000E+00  0.0000E+00  0.0000E+00  0.0000E+00
    -20.339  0.0000E+00  0.0000E+00  0.0000E+00  0.0000E+00
    -20.314  0.0000E+00  0.0000E+00  0.0000E+00  0.0000E+00
    -20.288  0.0000E+00  0.0000E+00  0.0000E+00  0.0000E+00
    -20.262  0.0000E+00  0.0000E+00  0.0000E+00  0.0000E+00
    -20.237  0.0000E+00  0.0000E+00  0.0000E+00  0.0000E+00
    -20.211  0.0000E+00  0.0000E+00  0.0000E+00  0.0000E+00
    -20.185  0.0000E+00  0.0000E+00  0.0000E+00  0.0000E+00
    -20.160  0.0000E+00  0.0000E+00  0.0000E+00  0.0000E+00
    -20.134  0.0000E+00  0.0000E+00  0.0000E+00  0.0000E+00
    -20.108  0.0000E+00  0.0000E+00  0.0000E+00  0.0000E+00
    -20.082  0.0000E+00  0.0000E+00  0.0000E+00  0.0000E+00
    -20.057  0.0000E+00  0.0000E+00  0.0000E+00  0.0000E+00
    -20.031  0.0000E+00  0.0000E+00  0.0000E+00  0.0000E+00
    -20.005  0.0000E+00  0.0000E+00  0.0000E+00  0.0000E+00
    -19.980  0.0000E+00  0.0000E+00  0.0000E+00  0.0000E+00
    -19.954  0.0000E+00  0.0000E+00  0.0000E+00  0.0000E+00
    -19.928  0.0000E+00  0.0000E+00  0.0000E+00  0.0000E+00
    -19.902  0.0000E+00  0.0000E+00  0.0000E+00  0.0000E+00
    -19.877  0.0000E+00  0.0000E+00  0.0000E+00  0.0000E+00
    -19.851  0.0000E+00  0.0000E+00  0.0000E+00  0.0000E+00
    -19.825  0.0000E+00  0.0000E+00  0.0000E+00  0.0000E+00
    -19.800  0.0000E+00  0.0000E+00  0.0000E+00  0.0000E+00
    -19.774  0.0000E+00  0.0000E+00  0.0000E+00  0.0000E+00
    -19.748  0.0000E+00  0.0000E+00  0.0000E+00  0.0000E+00
    -19.723  0.0000E+00  0.0000E+00  0.0000E+00  0.0000E+00
    -19.697  0.0000E+00  0.0000E+00  0.0000E+00  0.0000E+00
    -19.671  0.0000E+00  0.0000E+00  0.0000E+00  0.0000E+00
    -19.645  0.0000E+00  0.0000E+00  0.0000E+00  0.0000E+00
    -19.620  0.0000E+00  0.0000E+00  0.0000E+00  0.0000E+00
    -19.594  0.0000E+00  0.0000E+00  0.0000E+00  0.0000E+00
    -19.568  0.0000E+00  0.0000E+00  0.0000E+00  0.0000E+00
    -19.543  0.0000E+00  0.0000E+00  0.0000E+00  0.0000E+00
    -19.517  0.0000E+00  0.0000E+00  0.0000E+00  0.0000E+00
    -19.491  0.0000E+00  0.0000E+00  0.0000E+00  0.0000E+00
    -19.466  0.0000E+00  0.0000E+00  0.0000E+00  0.0000E+00
    -19.440  0.0000E+00  0.0000E+00  0.0000E+00  0.0000E+00
    -19.414  0.0000E+00  0.0000E+00  0.0000E+00  0.0000E+00
    -19.388  0.0000E+00  0.0000E+00  0.0000E+00  0.0000E+00
    -19.363  0.0000E+00  0.0000E+00  0.0000E+00  0.0000E+00
    -19.337  0.6933E-15  0.1867E-15  0.1782E-16  0.4797E-17
    -19.311  0.1789E-12  0.5552E-13  0.4616E-14  0.1432E-14
    -19.286  0.2787E-10  0.9686E-11  0.7209E-12  0.2504E-12
    -19.260  0.2584E-08  0.1005E-08  0.6712E-10  0.2609E-10
    -19.234  0.1427E-06  0.6218E-07  0.3736E-08  0.1624E-08
    -19.209  0.4708E-05  0.2295E-05  0.1247E-06  0.6060E-07
    -19.183  0.9285E-04  0.5062E-04  0.2511E-05  0.1362E-05
    -19.157  0.1097E-02  0.6687E-03  0.3071E-04  0.1855E-04
    -19.131  0.7780E-02  0.5300E-02  0.2307E-03  0.1548E-03
    -19.106  0.3317E-01  0.2525E-01  0.1083E-02  0.8037E-03
    -19.080  0.8517E-01  0.7240E-01  0.3272E-02  0.2664E-02
    -19.054  0.1318E+00  0.1251E+00  0.6660E-02  0.5880E-02
    -19.029  0.1230E+00  0.1304E+00  0.9822E-02  0.9232E-02
    -19.003  0.6926E-01  0.8196E-01  0.1160E-01  0.1134E-01
    -18.977  0.2359E-01  0.3110E-01  0.1221E-01  0.1214E-01
    -18.952  0.6371E-02  0.7968E-02  0.1237E-01  0.1234E-01
    -18.926  0.1579E-01  0.1054E-01  0.1278E-01  0.1261E-01
    -18.900  0.8816E-01  0.6224E-01  0.1504E-01  0.1421E-01
    -18.874  0.3073E+00  0.2428E+00  0.2294E-01  0.2045E-01
    -18.849  0.6455E+00  0.5713E+00  0.3953E-01  0.3514E-01
    -18.823  0.8176E+00  0.8103E+00  0.6054E-01  0.5596E-01
    -18.797  0.6246E+00  0.6931E+00  0.7660E-01  0.7378E-01
    -18.772  0.2877E+00  0.3575E+00  0.8399E-01  0.8297E-01
    -18.746  0.7981E-01  0.1111E+00  0.8604E-01  0.8582E-01
    -18.720  0.1332E-01  0.2078E-01  0.8638E-01  0.8636E-01
    -18.695  0.1335E-02  0.2335E-02  0.8642E-01  0.8642E-01
    -18.669  0.8024E-04  0.1574E-03  0.8642E-01  0.8642E-01
    -18.643  0.2886E-05  0.6348E-05  0.8642E-01  0.8642E-01
    -18.617  0.1053E-06  0.1692E-06  0.8642E-01  0.8642E-01
    -18.592  0.2110E-05  0.8902E-06  0.8642E-01  0.8642E-01
    -18.566  0.6134E-04  0.2914E-04  0.8642E-01  0.8642E-01
    -18.540  0.1067E-02  0.5719E-03  0.8645E-01  0.8644E-01
    -18.515  0.1113E-01  0.6724E-02  0.8673E-01  0.8661E-01
    -18.489  0.6971E-01  0.4745E-01  0.8853E-01  0.8783E-01
    -18.463  0.2626E+00  0.2013E+00  0.9528E-01  0.9300E-01
    -18.437  0.5957E+00  0.5144E+00  0.1106E+00  0.1062E+00
    -18.412  0.8148E+00  0.7923E+00  0.1315E+00  0.1266E+00
    -18.386  0.6722E+00  0.7359E+00  0.1488E+00  0.1455E+00
    -18.360  0.3347E+00  0.4123E+00  0.1574E+00  0.1561E+00
    -18.335  0.1041E+00  0.1413E+00  0.1601E+00  0.1597E+00
    -18.309  0.4907E-01  0.4801E-01  0.1613E+00  0.1610E+00
    -18.283  0.1507E+00  0.1104E+00  0.1652E+00  0.1638E+00
    -18.258  0.4296E+00  0.3491E+00  0.1763E+00  0.1728E+00
    -18.232  0.7476E+00  0.6855E+00  0.1955E+00  0.1904E+00
    -18.206  0.7847E+00  0.8122E+00  0.2156E+00  0.2113E+00
    -18.180  0.4967E+00  0.5804E+00  0.2284E+00  0.2262E+00
    -18.155  0.1895E+00  0.2500E+00  0.2333E+00  0.2326E+00
    -18.129  0.4354E-01  0.6488E-01  0.2344E+00  0.2343E+00
    -18.103  0.6014E-02  0.1012E-01  0.2346E+00  0.2345E+00
    -18.078  0.4986E-03  0.9487E-03  0.2346E+00  0.2346E+00
    -18.052  0.2476E-04  0.5328E-04  0.2346E+00  0.2346E+00
    -18.026  0.7352E-06  0.1790E-05  0.2346E+00  0.2346E+00
    -18.001  0.1303E-07  0.3590E-07  0.2346E+00  0.2346E+00
    -17.975  0.1377E-09  0.4294E-09  0.2346E+00  0.2346E+00
    -17.949  0.1534E-10  0.6925E-11  0.2346E+00  0.2346E+00
    -17.923  0.1864E-08  0.5687E-09  0.2346E+00  0.2346E+00
    -17.898  0.1430E-06  0.4976E-07  0.2346E+00  0.2346E+00
    -17.872  0.6539E-05  0.2595E-05  0.2346E+00  0.2346E+00
    -17.846  0.1786E-03  0.8081E-04  0.2346E+00  0.2346E+00
    -17.821  0.2920E-02  0.1505E-02  0.2346E+00  0.2346E+00
    -17.795  0.2861E-01  0.1680E-01  0.2354E+00  0.2350E+00
    -17.769  0.1684E+00  0.1125E+00  0.2397E+00  0.2379E+00
    -17.744  0.5962E+00  0.4535E+00  0.2550E+00  0.2496E+00
    -17.718  0.1272E+01  0.1100E+01  0.2877E+00  0.2779E+00
    -17.692  0.1636E+01  0.1610E+01  0.3298E+00  0.3192E+00
    -17.666  0.1269E+01  0.1420E+01  0.3624E+00  0.3557E+00
    -17.641  0.5933E+00  0.7554E+00  0.3776E+00  0.3751E+00
    -17.615  0.1671E+00  0.2421E+00  0.3819E+00  0.3814E+00
    -17.589  0.2833E-01  0.4671E-01  0.3826E+00  0.3826E+00
    -17.564  0.2952E-02  0.5445E-02  0.3827E+00  0.3827E+00
    -17.538  0.1344E-02  0.9584E-03  0.3827E+00  0.3827E+00
    -17.512  0.1197E-01  0.6836E-02  0.3831E+00  0.3829E+00
    -17.487  0.7365E-01  0.4799E-01  0.3849E+00  0.3841E+00
    -17.461  0.2730E+00  0.2031E+00  0.3920E+00  0.3894E+00
    -17.435  0.6118E+00  0.5192E+00  0.4077E+00  0.4027E+00
    -17.409  0.8388E+00  0.8078E+00  0.4292E+00  0.4235E+00
    -17.384  0.7297E+00  0.7857E+00  0.4480E+00  0.4437E+00
    -17.358  0.4529E+00  0.5214E+00  0.4596E+00  0.4571E+00
    -17.332  0.2812E+00  0.3059E+00  0.4669E+00  0.4649E+00
    -17.307  0.3225E+00  0.2834E+00  0.4752E+00  0.4722E+00
    -17.281  0.5752E+00  0.4854E+00  0.4899E+00  0.4847E+00
    -17.255  0.8096E+00  0.7640E+00  0.5107E+00  0.5043E+00
    -17.230  0.7198E+00  0.7849E+00  0.5292E+00  0.5245E+00
    -17.204  0.3900E+00  0.4931E+00  0.5393E+00  0.5372E+00
    -17.178  0.1399E+00  0.1937E+00  0.5429E+00  0.5421E+00
    -17.152  0.1046E+00  0.9197E-01  0.5456E+00  0.5445E+00
    -17.127  0.2949E+00  0.2151E+00  0.5531E+00  0.5500E+00
    -17.101  0.6686E+00  0.5485E+00  0.5703E+00  0.5641E+00
    -17.075  0.1047E+01  0.9476E+00  0.5972E+00  0.5885E+00
    -17.050  0.1372E+01  0.1280E+01  0.6325E+00  0.6214E+00
    -17.024  0.1766E+01  0.1651E+01  0.6779E+00  0.6638E+00
    -16.998  0.2098E+01  0.2026E+01  0.7318E+00  0.7159E+00
    -16.972  0.2213E+01  0.2205E+01  0.7887E+00  0.7726E+00
    -16.947  0.2103E+01  0.2171E+01  0.8427E+00  0.8284E+00
    -16.921  0.1598E+01  0.1785E+01  0.8838E+00  0.8743E+00
    -16.895  0.8388E+00  0.1046E+01  0.9054E+00  0.9011E+00
    -16.870  0.3538E+00  0.4359E+00  0.9145E+00  0.9123E+00
    -16.844  0.4577E+00  0.3574E+00  0.9262E+00  0.9215E+00
    -16.818  0.1197E+01  0.9276E+00  0.9570E+00  0.9454E+00
    -16.793  0.2146E+01  0.1904E+01  0.1012E+01  0.9943E+00
    -16.767  0.2385E+01  0.2429E+01  0.1073E+01  0.1057E+01
    -16.741  0.1717E+01  0.1959E+01  0.1118E+01  0.1107E+01
    -16.715  0.1042E+01  0.1185E+01  0.1144E+01  0.1138E+01
    -16.690  0.8967E+00  0.8959E+00  0.1167E+01  0.1161E+01
    -16.664  0.9304E+00  0.9284E+00  0.1191E+01  0.1184E+01
    -16.638  0.8860E+00  0.8992E+00  0.1214E+01  0.1208E+01
    -16.613  0.9106E+00  0.8918E+00  0.1237E+01  0.1230E+01
    -16.587  0.9825E+00  0.9629E+00  0.1263E+01  0.1255E+01
    -16.561  0.1176E+01  0.1076E+01  0.1293E+01  0.1283E+01
    -16.536  0.2053E+01  0.1700E+01  0.1346E+01  0.1327E+01
    -16.510  0.3535E+01  0.3109E+01  0.1437E+01  0.1406E+01
    -16.484  0.4253E+01  0.4206E+01  0.1546E+01  0.1515E+01
    -16.458  0.3469E+01  0.3819E+01  0.1635E+01  0.1613E+01
    -16.433  0.2140E+01  0.2511E+01  0.1690E+01  0.1677E+01
    -16.407  0.1254E+01  0.1444E+01  0.1722E+01  0.1714E+01
    -16.381  0.1010E+01  0.1021E+01  0.1748E+01  0.1741E+01
    -16.356  0.1222E+01  0.1130E+01  0.1780E+01  0.1770E+01
    -16.330  0.1614E+01  0.1491E+01  0.1821E+01  0.1808E+01
    -16.304  0.1980E+01  0.1892E+01  0.1872E+01  0.1857E+01
    -16.279  0.1960E+01  0.2029E+01  0.1922E+01  0.1909E+01
    -16.253  0.1385E+01  0.1591E+01  0.1958E+01  0.1950E+01
    -16.227  0.7365E+00  0.8979E+00  0.1977E+01  0.1973E+01
    -16.201  0.4133E+00  0.4760E+00  0.1988E+01  0.1985E+01
    -16.176  0.2745E+00  0.3108E+00  0.1995E+01  0.1993E+01
    -16.150  0.1467E+00  0.1836E+00  0.1998E+01  0.1998E+01
    -16.124  0.5033E-01  0.7241E-01  0.2000E+01  0.1999E+01
    -16.099  0.1052E-01  0.1753E-01  0.2000E+01  0.2000E+01
    -16.073  0.1323E-02  0.2560E-02  0.2000E+01  0.2000E+01
    -16.047  0.9990E-04  0.2246E-03  0.2000E+01  0.2000E+01
    -16.022  0.4518E-05  0.1181E-04  0.2000E+01  0.2000E+01
    -15.996  0.1221E-06  0.3712E-06  0.2000E+01  0.2000E+01
    -15.970  0.1970E-08  0.6966E-08  0.2000E+01  0.2000E+01
    -15.944  0.1893E-10  0.7793E-10  0.2000E+01  0.2000E+01
    -15.919  0.1082E-12  0.5188E-12  0.2000E+01  0.2000E+01
    -15.893  0.4266E-15  0.2133E-14  0.2000E+01  0.2000E+01
    -15.867  0.0000E+00  0.0000E+00  0.2000E+01  0.2000E+01
    -15.842  0.0000E+00  0.0000E+00  0.2000E+01  0.2000E+01
    -15.816  0.0000E+00  0.0000E+00  0.2000E+01  0.2000E+01
    -15.790  0.0000E+00  0.0000E+00  0.2000E+01  0.2000E+01
    -15.765  0.0000E+00  0.0000E+00  0.2000E+01  0.2000E+01
    -15.739  0.0000E+00  0.0000E+00  0.2000E+01  0.2000E+01
    -15.713  0.0000E+00  0.0000E+00  0.2000E+01  0.2000E+01
    -15.687  0.0000E+00  0.0000E+00  0.2000E+01  0.2000E+01
    -15.662  0.0000E+00  0.0000E+00  0.2000E+01  0.2000E+01
    -15.636  0.0000E+00  0.0000E+00  0.2000E+01  0.2000E+01
    -15.610  0.0000E+00  0.0000E+00  0.2000E+01  0.2000E+01
    -15.585  0.0000E+00  0.0000E+00  0.2000E+01  0.2000E+01
    -15.559  0.0000E+00  0.0000E+00  0.2000E+01  0.2000E+01
    -15.533  0.0000E+00  0.0000E+00  0.2000E+01  0.2000E+01
    -15.507  0.0000E+00  0.0000E+00  0.2000E+01  0.2000E+01
    -15.482  0.0000E+00  0.0000E+00  0.2000E+01  0.2000E+01
    -15.456  0.0000E+00  0.0000E+00  0.2000E+01  0.2000E+01
    -15.430  0.0000E+00  0.0000E+00  0.2000E+01  0.2000E+01
    -15.405  0.0000E+00  0.0000E+00  0.2000E+01  0.2000E+01
    -15.379  0.0000E+00  0.0000E+00  0.2000E+01  0.2000E+01
    -15.353  0.0000E+00  0.0000E+00  0.2000E+01  0.2000E+01
    -15.328  0.0000E+00  0.0000E+00  0.2000E+01  0.2000E+01
    -15.302  0.0000E+00  0.0000E+00  0.2000E+01  0.2000E+01
    -15.276  0.0000E+00  0.0000E+00  0.2000E+01  0.2000E+01
    -15.250  0.0000E+00  0.0000E+00  0.2000E+01  0.2000E+01
    -15.225  0.0000E+00  0.0000E+00  0.2000E+01  0.2000E+01
    -15.199  0.0000E+00  0.0000E+00  0.2000E+01  0.2000E+01
    -15.173  0.0000E+00  0.0000E+00  0.2000E+01  0.2000E+01
    -15.148  0.0000E+00  0.0000E+00  0.2000E+01  0.2000E+01
    -15.122  0.0000E+00  0.0000E+00  0.2000E+01  0.2000E+01
    -15.096  0.0000E+00  0.0000E+00  0.2000E+01  0.2000E+01
    -15.071  0.0000E+00  0.0000E+00  0.2000E+01  0.2000E+01
    -15.045  0.0000E+00  0.0000E+00  0.2000E+01  0.2000E+01
    -15.019  0.0000E+00  0.0000E+00  0.2000E+01  0.2000E+01
    -14.993  0.0000E+00  0.0000E+00  0.2000E+01  0.2000E+01
    -14.968  0.0000E+00  0.0000E+00  0.2000E+01  0.2000E+01
    -14.942  0.0000E+00  0.0000E+00  0.2000E+01  0.2000E+01
    -14.916  0.0000E+00  0.0000E+00  0.2000E+01  0.2000E+01
    -14.891  0.0000E+00  0.0000E+00  0.2000E+01  0.2000E+01
    -14.865  0.0000E+00  0.0000E+00  0.2000E+01  0.2000E+01
    -14.839  0.0000E+00  0.0000E+00  0.2000E+01  0.2000E+01
    -14.814  0.0000E+00  0.0000E+00  0.2000E+01  0.2000E+01
    -14.788  0.0000E+00  0.0000E+00  0.2000E+01  0.2000E+01
    -14.762  0.0000E+00  0.0000E+00  0.2000E+01  0.2000E+01
    -14.736  0.0000E+00  0.0000E+00  0.2000E+01  0.2000E+01
    -14.711  0.0000E+00  0.0000E+00  0.2000E+01  0.2000E+01
    -14.685  0.0000E+00  0.0000E+00  0.2000E+01  0.2000E+01
    -14.659  0.0000E+00  0.0000E+00  0.2000E+01  0.2000E+01
    -14.634  0.0000E+00  0.0000E+00  0.2000E+01  0.2000E+01
    -14.608  0.0000E+00  0.0000E+00  0.2000E+01  0.2000E+01
    -14.582  0.0000E+00  0.0000E+00  0.2000E+01  0.2000E+01
    -14.557  0.0000E+00  0.0000E+00  0.2000E+01  0.2000E+01
    -14.531  0.0000E+00  0.0000E+00  0.2000E+01  0.2000E+01
    -14.505  0.0000E+00  0.0000E+00  0.2000E+01  0.2000E+01
    -14.479  0.0000E+00  0.0000E+00  0.2000E+01  0.2000E+01
    -14.454  0.0000E+00  0.0000E+00  0.2000E+01  0.2000E+01
    -14.428  0.0000E+00  0.0000E+00  0.2000E+01  0.2000E+01
    -14.402  0.0000E+00  0.0000E+00  0.2000E+01  0.2000E+01
    -14.377  0.0000E+00  0.0000E+00  0.2000E+01  0.2000E+01
    -14.351  0.0000E+00  0.0000E+00  0.2000E+01  0.2000E+01
    -14.325  0.0000E+00  0.0000E+00  0.2000E+01  0.2000E+01
    -14.300  0.0000E+00  0.0000E+00  0.2000E+01  0.2000E+01
    -14.274  0.0000E+00  0.0000E+00  0.2000E+01  0.2000E+01
    -14.248  0.0000E+00  0.0000E+00  0.2000E+01  0.2000E+01
    -14.222  0.0000E+00  0.0000E+00  0.2000E+01  0.2000E+01
    -14.197  0.0000E+00  0.0000E+00  0.2000E+01  0.2000E+01
    -14.171  0.0000E+00  0.0000E+00  0.2000E+01  0.2000E+01
    -14.145  0.0000E+00  0.0000E+00  0.2000E+01  0.2000E+01
    -14.120  0.0000E+00  0.0000E+00  0.2000E+01  0.2000E+01
    -14.094  0.0000E+00  0.0000E+00  0.2000E+01  0.2000E+01
    -14.068  0.0000E+00  0.0000E+00  0.2000E+01  0.2000E+01
    -14.043  0.0000E+00  0.0000E+00  0.2000E+01  0.2000E+01
    -14.017  0.0000E+00  0.0000E+00  0.2000E+01  0.2000E+01
    -13.991  0.0000E+00  0.0000E+00  0.2000E+01  0.2000E+01
    -13.965  0.0000E+00  0.0000E+00  0.2000E+01  0.2000E+01
    -13.940  0.0000E+00  0.0000E+00  0.2000E+01  0.2000E+01
    -13.914  0.0000E+00  0.0000E+00  0.2000E+01  0.2000E+01
    -13.888  0.0000E+00  0.0000E+00  0.2000E+01  0.2000E+01
    -13.863  0.0000E+00  0.0000E+00  0.2000E+01  0.2000E+01
    -13.837  0.0000E+00  0.0000E+00  0.2000E+01  0.2000E+01
    -13.811  0.0000E+00  0.0000E+00  0.2000E+01  0.2000E+01
    -13.785  0.0000E+00  0.0000E+00  0.2000E+01  0.2000E+01
    -13.760  0.0000E+00  0.0000E+00  0.2000E+01  0.2000E+01
    -13.734  0.0000E+00  0.0000E+00  0.2000E+01  0.2000E+01
    -13.708  0.0000E+00  0.0000E+00  0.2000E+01  0.2000E+01
    -13.683  0.0000E+00  0.0000E+00  0.2000E+01  0.2000E+01
    -13.657  0.0000E+00  0.0000E+00  0.2000E+01  0.2000E+01
    -13.631  0.0000E+00  0.0000E+00  0.2000E+01  0.2000E+01
    -13.606  0.0000E+00  0.0000E+00  0.2000E+01  0.2000E+01
    -13.580  0.0000E+00  0.0000E+00  0.2000E+01  0.2000E+01
    -13.554  0.0000E+00  0.0000E+00  0.2000E+01  0.2000E+01
    -13.528  0.0000E+00  0.0000E+00  0.2000E+01  0.2000E+01
    -13.503  0.0000E+00  0.0000E+00  0.2000E+01  0.2000E+01
    -13.477  0.0000E+00  0.0000E+00  0.2000E+01  0.2000E+01
    -13.451  0.0000E+00  0.0000E+00  0.2000E+01  0.2000E+01
    -13.426  0.0000E+00  0.0000E+00  0.2000E+01  0.2000E+01
    -13.400  0.0000E+00  0.0000E+00  0.2000E+01  0.2000E+01
    -13.374  0.0000E+00  0.0000E+00  0.2000E+01  0.2000E+01
    -13.349  0.0000E+00  0.0000E+00  0.2000E+01  0.2000E+01
    -13.323  0.0000E+00  0.0000E+00  0.2000E+01  0.2000E+01
    -13.297  0.0000E+00  0.0000E+00  0.2000E+01  0.2000E+01
    -13.271  0.0000E+00  0.0000E+00  0.2000E+01  0.2000E+01
    -13.246  0.0000E+00  0.0000E+00  0.2000E+01  0.2000E+01
    -13.220  0.0000E+00  0.0000E+00  0.2000E+01  0.2000E+01
    -13.194  0.0000E+00  0.0000E+00  0.2000E+01  0.2000E+01
    -13.169  0.0000E+00  0.0000E+00  0.2000E+01  0.2000E+01
    -13.143  0.0000E+00  0.0000E+00  0.2000E+01  0.2000E+01
    -13.117  0.0000E+00  0.0000E+00  0.2000E+01  0.2000E+01
    -13.092  0.0000E+00  0.0000E+00  0.2000E+01  0.2000E+01
    -13.066  0.0000E+00  0.0000E+00  0.2000E+01  0.2000E+01
    -13.040  0.0000E+00  0.0000E+00  0.2000E+01  0.2000E+01
    -13.014  0.0000E+00  0.0000E+00  0.2000E+01  0.2000E+01
    -12.989  0.0000E+00  0.0000E+00  0.2000E+01  0.2000E+01
    -12.963  0.0000E+00  0.0000E+00  0.2000E+01  0.2000E+01
    -12.937  0.0000E+00  0.0000E+00  0.2000E+01  0.2000E+01
    -12.912  0.0000E+00  0.0000E+00  0.2000E+01  0.2000E+01
    -12.886  0.0000E+00  0.0000E+00  0.2000E+01  0.2000E+01
    -12.860  0.0000E+00  0.0000E+00  0.2000E+01  0.2000E+01
    -12.835  0.0000E+00  0.0000E+00  0.2000E+01  0.2000E+01
    -12.809  0.0000E+00  0.0000E+00  0.2000E+01  0.2000E+01
    -12.783  0.0000E+00  0.0000E+00  0.2000E+01  0.2000E+01
    -12.757  0.0000E+00  0.0000E+00  0.2000E+01  0.2000E+01
    -12.732  0.0000E+00  0.0000E+00  0.2000E+01  0.2000E+01
    -12.706  0.0000E+00  0.0000E+00  0.2000E+01  0.2000E+01
    -12.680  0.0000E+00  0.0000E+00  0.2000E+01  0.2000E+01
    -12.655  0.0000E+00  0.0000E+00  0.2000E+01  0.2000E+01
    -12.629  0.0000E+00  0.0000E+00  0.2000E+01  0.2000E+01
    -12.603  0.0000E+00  0.0000E+00  0.2000E+01  0.2000E+01
    -12.578  0.0000E+00  0.0000E+00  0.2000E+01  0.2000E+01
    -12.552  0.0000E+00  0.0000E+00  0.2000E+01  0.2000E+01
    -12.526  0.0000E+00  0.0000E+00  0.2000E+01  0.2000E+01
    -12.500  0.0000E+00  0.0000E+00  0.2000E+01  0.2000E+01
    -12.475  0.0000E+00  0.0000E+00  0.2000E+01  0.2000E+01
    -12.449  0.0000E+00  0.0000E+00  0.2000E+01  0.2000E+01
    -12.423  0.0000E+00  0.0000E+00  0.2000E+01  0.2000E+01
    -12.398  0.0000E+00  0.0000E+00  0.2000E+01  0.2000E+01
    -12.372  0.0000E+00  0.0000E+00  0.2000E+01  0.2000E+01
    -12.346  0.0000E+00  0.0000E+00  0.2000E+01  0.2000E+01
    -12.320  0.0000E+00  0.0000E+00  0.2000E+01  0.2000E+01
    -12.295  0.0000E+00  0.0000E+00  0.2000E+01  0.2000E+01
    -12.269  0.0000E+00  0.0000E+00  0.2000E+01  0.2000E+01
    -12.243  0.0000E+00  0.0000E+00  0.2000E+01  0.2000E+01
    -12.218  0.0000E+00  0.0000E+00  0.2000E+01  0.2000E+01
    -12.192  0.0000E+00  0.0000E+00  0.2000E+01  0.2000E+01
    -12.166  0.0000E+00  0.0000E+00  0.2000E+01  0.2000E+01
    -12.141  0.0000E+00  0.0000E+00  0.2000E+01  0.2000E+01
    -12.115  0.0000E+00  0.0000E+00  0.2000E+01  0.2000E+01
    -12.089  0.0000E+00  0.0000E+00  0.2000E+01  0.2000E+01
    -12.063  0.0000E+00  0.0000E+00  0.2000E+01  0.2000E+01
    -12.038  0.0000E+00  0.0000E+00  0.2000E+01  0.2000E+01
    -12.012  0.0000E+00  0.0000E+00  0.2000E+01  0.2000E+01
    -11.986  0.0000E+00  0.0000E+00  0.2000E+01  0.2000E+01
    -11.961  0.0000E+00  0.0000E+00  0.2000E+01  0.2000E+01
    -11.935  0.0000E+00  0.0000E+00  0.2000E+01  0.2000E+01
    -11.909  0.0000E+00  0.0000E+00  0.2000E+01  0.2000E+01
    -11.884  0.0000E+00  0.0000E+00  0.2000E+01  0.2000E+01
    -11.858  0.0000E+00  0.0000E+00  0.2000E+01  0.2000E+01
    -11.832  0.0000E+00  0.0000E+00  0.2000E+01  0.2000E+01
    -11.806  0.0000E+00  0.0000E+00  0.2000E+01  0.2000E+01
    -11.781  0.0000E+00  0.0000E+00  0.2000E+01  0.2000E+01
    -11.755  0.0000E+00  0.0000E+00  0.2000E+01  0.2000E+01
    -11.729  0.0000E+00  0.0000E+00  0.2000E+01  0.2000E+01
    -11.704  0.0000E+00  0.0000E+00  0.2000E+01  0.2000E+01
    -11.678  0.0000E+00  0.0000E+00  0.2000E+01  0.2000E+01
    -11.652  0.0000E+00  0.0000E+00  0.2000E+01  0.2000E+01
    -11.627  0.0000E+00  0.0000E+00  0.2000E+01  0.2000E+01
    -11.601  0.0000E+00  0.0000E+00  0.2000E+01  0.2000E+01
    -11.575  0.0000E+00  0.0000E+00  0.2000E+01  0.2000E+01
    -11.549  0.0000E+00  0.0000E+00  0.2000E+01  0.2000E+01
    -11.524  0.0000E+00  0.0000E+00  0.2000E+01  0.2000E+01
    -11.498  0.0000E+00  0.0000E+00  0.2000E+01  0.2000E+01
    -11.472  0.0000E+00  0.0000E+00  0.2000E+01  0.2000E+01
    -11.447  0.0000E+00  0.0000E+00  0.2000E+01  0.2000E+01
    -11.421  0.0000E+00  0.0000E+00  0.2000E+01  0.2000E+01
    -11.395  0.0000E+00  0.0000E+00  0.2000E+01  0.2000E+01
    -11.370  0.0000E+00  0.0000E+00  0.2000E+01  0.2000E+01
    -11.344  0.0000E+00  0.0000E+00  0.2000E+01  0.2000E+01
    -11.318  0.0000E+00  0.0000E+00  0.2000E+01  0.2000E+01
    -11.292  0.0000E+00  0.0000E+00  0.2000E+01  0.2000E+01
    -11.267  0.0000E+00  0.0000E+00  0.2000E+01  0.2000E+01
    -11.241  0.0000E+00  0.0000E+00  0.2000E+01  0.2000E+01
    -11.215  0.0000E+00  0.0000E+00  0.2000E+01  0.2000E+01
    -11.190  0.0000E+00  0.0000E+00  0.2000E+01  0.2000E+01
    -11.164  0.0000E+00  0.0000E+00  0.2000E+01  0.2000E+01
    -11.138  0.0000E+00  0.0000E+00  0.2000E+01  0.2000E+01
    -11.113  0.0000E+00  0.0000E+00  0.2000E+01  0.2000E+01
    -11.087  0.0000E+00  0.0000E+00  0.2000E+01  0.2000E+01
    -11.061  0.0000E+00  0.0000E+00  0.2000E+01  0.2000E+01
    -11.035  0.0000E+00  0.0000E+00  0.2000E+01  0.2000E+01
    -11.010  0.0000E+00  0.0000E+00  0.2000E+01  0.2000E+01
    -10.984  0.0000E+00  0.0000E+00  0.2000E+01  0.2000E+01
    -10.958  0.0000E+00  0.0000E+00  0.2000E+01  0.2000E+01
    -10.933  0.0000E+00  0.0000E+00  0.2000E+01  0.2000E+01
    -10.907  0.0000E+00  0.0000E+00  0.2000E+01  0.2000E+01
    -10.881  0.0000E+00  0.0000E+00  0.2000E+01  0.2000E+01
    -10.855  0.0000E+00  0.0000E+00  0.2000E+01  0.2000E+01
    -10.830  0.0000E+00  0.0000E+00  0.2000E+01  0.2000E+01
    -10.804  0.0000E+00  0.0000E+00  0.2000E+01  0.2000E+01
    -10.778  0.0000E+00  0.0000E+00  0.2000E+01  0.2000E+01
    -10.753  0.0000E+00  0.0000E+00  0.2000E+01  0.2000E+01
    -10.727  0.0000E+00  0.0000E+00  0.2000E+01  0.2000E+01
    -10.701  0.0000E+00  0.0000E+00  0.2000E+01  0.2000E+01
    -10.676  0.0000E+00  0.0000E+00  0.2000E+01  0.2000E+01
    -10.650  0.0000E+00  0.0000E+00  0.2000E+01  0.2000E+01
    -10.624  0.0000E+00  0.0000E+00  0.2000E+01  0.2000E+01
    -10.598  0.0000E+00  0.0000E+00  0.2000E+01  0.2000E+01
    -10.573  0.0000E+00  0.0000E+00  0.2000E+01  0.2000E+01
    -10.547  0.0000E+00  0.0000E+00  0.2000E+01  0.2000E+01
    -10.521  0.0000E+00  0.0000E+00  0.2000E+01  0.2000E+01
    -10.496  0.0000E+00  0.0000E+00  0.2000E+01  0.2000E+01
    -10.470  0.0000E+00  0.0000E+00  0.2000E+01  0.2000E+01
    -10.444  0.0000E+00  0.0000E+00  0.2000E+01  0.2000E+01
    -10.419  0.0000E+00  0.0000E+00  0.2000E+01  0.2000E+01
    -10.393  0.0000E+00  0.0000E+00  0.2000E+01  0.2000E+01
    -10.367  0.0000E+00  0.0000E+00  0.2000E+01  0.2000E+01
    -10.341  0.0000E+00  0.0000E+00  0.2000E+01  0.2000E+01
    -10.316  0.0000E+00  0.0000E+00  0.2000E+01  0.2000E+01
    -10.290  0.0000E+00  0.0000E+00  0.2000E+01  0.2000E+01
    -10.264  0.0000E+00  0.0000E+00  0.2000E+01  0.2000E+01
    -10.239  0.0000E+00  0.0000E+00  0.2000E+01  0.2000E+01
    -10.213  0.0000E+00  0.0000E+00  0.2000E+01  0.2000E+01
    -10.187  0.0000E+00  0.0000E+00  0.2000E+01  0.2000E+01
    -10.162  0.0000E+00  0.0000E+00  0.2000E+01  0.2000E+01
    -10.136  0.1600E-15  0.0000E+00  0.2000E+01  0.2000E+01
    -10.110  0.3408E-13  0.2040E-13  0.2000E+01  0.2000E+01
    -10.084  0.7489E-11  0.4674E-11  0.2000E+01  0.2000E+01
    -10.059  0.9753E-09  0.6389E-09  0.2000E+01  0.2000E+01
    -10.033  0.7565E-07  0.5200E-07  0.2000E+01  0.2000E+01
    -10.007  0.3499E-05  0.2523E-05  0.2000E+01  0.2000E+01
     -9.982  0.9671E-04  0.7311E-04  0.2000E+01  0.2000E+01
     -9.956  0.1600E-02  0.1268E-02  0.2000E+01  0.2000E+01
     -9.930  0.1586E-01  0.1317E-01  0.2000E+01  0.2000E+01
     -9.905  0.9453E-01  0.8220E-01  0.2003E+01  0.2002E+01
     -9.879  0.3390E+00  0.3087E+00  0.2012E+01  0.2010E+01
     -9.853  0.7346E+00  0.6996E+00  0.2030E+01  0.2028E+01
     -9.827  0.9760E+00  0.9691E+00  0.2056E+01  0.2053E+01
     -9.802  0.8664E+00  0.8822E+00  0.2078E+01  0.2076E+01
     -9.776  0.7246E+00  0.7223E+00  0.2096E+01  0.2095E+01
     -9.750  0.8046E+00  0.7882E+00  0.2117E+01  0.2115E+01
     -9.725  0.8247E+00  0.8356E+00  0.2138E+01  0.2136E+01
     -9.699  0.5609E+00  0.5978E+00  0.2153E+01  0.2152E+01
     -9.673  0.2356E+00  0.2645E+00  0.2159E+01  0.2158E+01
     -9.648  0.7848E-01  0.8800E-01  0.2161E+01  0.2161E+01
     -9.622  0.1162E+00  0.1126E+00  0.2164E+01  0.2164E+01
     -9.596  0.3505E+00  0.3381E+00  0.2173E+01  0.2172E+01
     -9.570  0.6862E+00  0.6748E+00  0.2190E+01  0.2190E+01
     -9.545  0.8121E+00  0.8144E+00  0.2211E+01  0.2211E+01
     -9.519  0.5799E+00  0.5931E+00  0.2226E+01  0.2226E+01
     -9.493  0.2543E+00  0.2642E+00  0.2233E+01  0.2233E+01
     -9.468  0.1081E+00  0.1059E+00  0.2236E+01  0.2235E+01
     -9.442  0.2399E+00  0.2153E+00  0.2242E+01  0.2241E+01
     -9.416  0.7317E+00  0.6783E+00  0.2261E+01  0.2258E+01
     -9.390  0.1400E+01  0.1352E+01  0.2296E+01  0.2293E+01
     -9.365  0.1617E+01  0.1628E+01  0.2338E+01  0.2335E+01
     -9.339  0.1126E+01  0.1182E+01  0.2367E+01  0.2365E+01
     -9.313  0.4730E+00  0.5177E+00  0.2379E+01  0.2379E+01
     -9.288  0.1216E+00  0.1381E+00  0.2382E+01  0.2382E+01
     -9.262  0.3987E-01  0.3921E-01  0.2383E+01  0.2383E+01
     -9.236  0.1403E+00  0.1202E+00  0.2387E+01  0.2386E+01
     -9.211  0.5417E+00  0.4858E+00  0.2401E+01  0.2399E+01
     -9.185  0.1322E+01  0.1245E+01  0.2435E+01  0.2431E+01
     -9.159  0.2110E+01  0.2076E+01  0.2489E+01  0.2484E+01
     -9.133  0.2391E+01  0.2425E+01  0.2550E+01  0.2546E+01
     -9.108  0.2167E+01  0.2221E+01  0.2606E+01  0.2603E+01
     -9.082  0.1727E+01  0.1766E+01  0.2651E+01  0.2649E+01
     -9.056  0.1202E+01  0.1227E+01  0.2681E+01  0.2680E+01
     -9.031  0.7402E+00  0.7501E+00  0.2700E+01  0.2700E+01
     -9.005  0.6274E+00  0.6148E+00  0.2717E+01  0.2715E+01
     -8.979  0.9081E+00  0.8869E+00  0.2740E+01  0.2738E+01
     -8.954  0.1243E+01  0.1238E+01  0.2772E+01  0.2770E+01
     -8.928  0.1310E+01  0.1324E+01  0.2806E+01  0.2804E+01
     -8.902  0.1088E+01  0.1104E+01  0.2833E+01  0.2833E+01
     -8.876  0.8970E+00  0.8946E+00  0.2857E+01  0.2856E+01
     -8.851  0.1136E+01  0.1111E+01  0.2886E+01  0.2884E+01
     -8.825  0.1588E+01  0.1572E+01  0.2927E+01  0.2924E+01
     -8.799  0.1554E+01  0.1572E+01  0.2967E+01  0.2965E+01
     -8.774  0.1046E+01  0.1074E+01  0.2993E+01  0.2992E+01
     -8.748  0.8572E+00  0.8602E+00  0.3015E+01  0.3015E+01
     -8.722  0.1348E+01  0.1329E+01  0.3050E+01  0.3049E+01
     -8.697  0.1890E+01  0.1877E+01  0.3099E+01  0.3097E+01
     -8.671  0.1740E+01  0.1743E+01  0.3143E+01  0.3142E+01