    3    3    1    2
  0.5740403E+02  0.3153200E-09  0.3153200E-09  0.2000000E-08  0.5000000E-15
  1.000000000000000E-004
  CAR 
 Anon                                    
     18     74     64
 
  0.0000000E+00  0.0000000E+00  0.0000000E+00  0.1234568E-01
      1        -19.057836      -19.052230   1.000000   1.000000
      2        -17.353635      -17.345934   1.000000   1.000000
      3         -9.837593       -9.836648   1.000000   1.000000
      4         -5.794740       -5.797139   1.000000   1.000000
      5         -5.794740       -5.797139   1.000000   1.000000
      6         -5.134150       -5.129262   1.000000   1.000000
      7         -4.322472       -4.323637   1.000000   1.000000
      8         -4.322472       -4.323636   1.000000   1.000000
      9         -2.772740       -2.778345   1.000000   1.000000
     10          1.149396        1.149356   0.000000   0.000000
     11          1.149396        1.149356   0.000000   0.000000
     12          1.244404        1.248682   0.000000   0.000000
     13          1.244404        1.248682   0.000000   0.000000
     14          3.100703        3.099644   0.000000   0.000000
     15          3.335909        3.335173   0.000000   0.000000
     16          3.838789        3.839281   0.000000   0.000000
     17          4.331708        4.332776   0.000000   0.000000
     18          5.166959        5.166906   0.000000   0.000000
     19          6.361995        6.361733   0.000000   0.000000
     20          7.311848        7.312508   0.000000   0.000000
     21          8.031368        8.031286   0.000000   0.000000
     22          9.335266        9.334867   0.000000   0.000000
     23          9.350387        9.353005   0.000000   0.000000
     24          9.350387        9.353006   0.000000   0.000000
     25         11.403536       11.403262   0.000000   0.000000
     26         11.743623       11.746922   0.000000   0.000000
     27         11.743623       11.746922   0.000000   0.000000
     28         11.855817       11.855801   0.000000   0.000000
     29         13.331850       13.331791   0.000000   0.000000
     30         14.649918       14.649291   0.000000   0.000000
     31         15.485424       15.488075   0.000000   0.000000
     32         15.485425       15.488075   0.000000   0.000000
     33         15.847268       15.850205   0.000000   0.000000
     34         15.847268       15.850205   0.000000   0.000000
     35         16.349694       16.349093   0.000000   0.000000
     36         16.545643       16.545958   0.000000   0.000000
     37         18.244961       18.244190   0.000000   0.000000
     38         18.796680       18.797011   0.000000   0.000000
     39         21.493547       21.492742   0.000000   0.000000
     40         21.493554       21.492768   0.000000   0.000000
     41         21.618045       21.618173   0.000000   0.000000
     42         21.936298       21.936759   0.000000   0.000000
     43         22.800550       22.800037   0.000000   0.000000
     44         22.800719       22.800472   0.000000   0.000000
     45         23.071629       23.070302   0.000000   0.000000
     46         23.230878       23.230482   0.000000   0.000000
     47         23.278666       23.277496   0.000000   0.000000
     48         23.278883       23.279457   0.000000   0.000000
     49         23.387850       23.386408   0.000000   0.000000
     50         23.391017       23.387698   0.000000   0.000000
     51         23.500759       23.500258   0.000000   0.000000
     52         23.701192       23.690765   0.000000   0.000000
     53         23.741698       23.745365   0.000000   0.000000
     54         23.748374       23.745531   0.000000   0.000000
     55         24.195067       24.170720   0.000000   0.000000
     56         24.197297       24.203376   0.000000   0.000000
     57         24.227945       24.238341   0.000000   0.000000
     58         24.315473       24.314036   0.000000   0.000000
     59         24.764317       24.761431   0.000000   0.000000
     60         24.833223       24.802486   0.000000   0.000000
     61         24.852419       24.844021   0.000000   0.000000
     62         24.853469       24.991664   0.000000   0.000000
     63         25.131134       25.168871   0.000000   0.000000
     64         25.541885       25.572088   0.000000   0.000000
 
  0.1111111E+00  0.0000000E+00  0.0000000E+00  0.7407407E-01
      1        -18.836703      -18.830953   1.000000   1.000000
      2        -17.260748      -17.253075   1.000000   1.000000
      3         -9.561847       -9.560843   1.000000   1.000000
      4         -6.358769       -6.360102   1.000000   1.000000
      5         -5.716816       -5.715164   1.000000   1.000000
      6         -5.566593       -5.568267   1.000000   1.000000
      7         -4.674082       -4.675049   1.000000   1.000000
      8         -4.189428       -4.185485   1.000000   1.000000
      9         -2.894497       -2.899913   1.000000   1.000000
     10          0.733094        0.735465   0.000000   0.000000
     11          1.005994        1.003481   0.000000   0.000000
     12          1.044532        1.047705   0.000000   0.000000
     13          1.549007        1.548604   0.000000   0.000000
     14          3.437970        3.437100   0.000000   0.000000
     15          3.591812        3.591088   0.000000   0.000000
     16          4.280090        4.279931   0.000000   0.000000
     17          5.051319        5.052962   0.000000   0.000000
     18          5.408667        5.408638   0.000000   0.000000
     19          6.639630        6.639414   0.000000   0.000000
     20          8.102809        8.103878   0.000000   0.000000
     21          8.311244        8.311463   0.000000   0.000000
     22          8.425592        8.427074   0.000000   0.000000
     23          9.815613        9.815711   0.000000   0.000000
     24          9.982241        9.985052   0.000000   0.000000
     25         10.398454       10.400700   0.000000   0.000000
     26         11.642271       11.642941   0.000000   0.000000
     27         11.768585       11.772116   0.000000   0.000000
     28         12.071672       12.071661   0.000000   0.000000
     29         13.435601       13.435725   0.000000   0.000000
     30         14.036412       14.037671   0.000000   0.000000
     31         15.100202       15.102643   0.000000   0.000000
     32         15.376727       15.378273   0.000000   0.000000
     33         15.902059       15.904694   0.000000   0.000000
     34         16.305563       16.305936   0.000000   0.000000
     35         16.966975       16.966639   0.000000   0.000000
     36         17.142018       17.142753   0.000000   0.000000
     37         18.811097       18.811231   0.000000   0.000000
     38         19.132334       19.131533   0.000000   0.000000
     39         19.390869       19.390420   0.000000   0.000000
     40         20.057711       20.057790   0.000000   0.000000
     41         20.082452       20.082197   0.000000   0.000000
     42         20.786534       20.786263   0.000000   0.000000
     43         20.825098       20.824481   0.000000   0.000000
     44         21.252621       21.251943   0.000000   0.000000
     45         21.305987       21.305282   0.000000   0.000000
     46         21.558225       21.557295   0.000000   0.000000
     47         21.746265       21.745757   0.000000   0.000000
     48         22.137746       22.137582   0.000000   0.000000
     49         22.229917       22.230500   0.000000   0.000000
     50         22.246318       22.245912   0.000000   0.000000
     51         22.529423       22.529062   0.000000   0.000000
     52         22.914876       22.914426   0.000000   0.000000
     53         22.932511       22.931431   0.000000   0.000000
     54         23.070656       23.070341   0.000000   0.000000
     55         23.178641       23.177816   0.000000   0.000000
     56         23.772623       23.771899   0.000000   0.000000
     57         24.333953       24.333725   0.000000   0.000000
     58         24.920490       24.915363   0.000000   0.000000
     59         25.213790       25.151628   0.000000   0.000000
     60         25.388341       25.375923   0.000000   0.000000
     61         25.577164       25.465285   0.000000   0.000000
     62         25.873051       25.771554   0.000000   0.000000
     63         26.091243       25.929015   0.000000   0.000000
     64         26.570234       26.246825   0.000000   0.000000
 
  0.2222222E+00  0.0000000E+00  0.0000000E+00  0.7407407E-01
      1        -18.229414      -18.223255   1.000000   1.000000
      2        -17.008351      -17.000761   1.000000   1.000000
      3         -8.925435       -8.924605   1.000000   1.000000
      4         -7.462377       -7.461237   1.000000   1.000000
      5         -6.713677       -6.712263   1.000000   1.000000
      6         -5.387015       -5.387690   1.000000   1.000000
      7         -4.988491       -4.987737   1.000000   1.000000
      8         -4.476836       -4.470795   1.000000   1.000000
      9         -3.453432       -3.458199   1.000000   1.000000
     10          0.321025        0.320188   0.000000   0.000000
     11          0.725065        0.725020   0.000000   0.000000
     12          1.271570        1.266940   0.000000   0.000000
     13          2.310564        2.309506   0.000000   0.000000
     14          4.156091        4.155238   0.000000   0.000000
     15          4.314258        4.313615   0.000000   0.000000
     16          5.013150        5.012966   0.000000   0.000000
     17          6.078057        6.078166   0.000000   0.000000
     18          6.245578        6.246346   0.000000   0.000000
     19          7.473796        7.473746   0.000000   0.000000
     20          7.889110        7.890038   0.000000   0.000000
     21          7.953935        7.954585   0.000000   0.000000
     22          9.038340        9.038301   0.000000   0.000000
     23         10.277113       10.277111   0.000000   0.000000
     24         10.442823       10.445128   0.000000   0.000000
     25         11.168251       11.170246   0.000000   0.000000
     26         11.401378       11.403790   0.000000   0.000000
     27         12.163795       12.164466   0.000000   0.000000
     28         12.177504       12.181458   0.000000   0.000000
     29         13.166651       13.166558   0.000000   0.000000
     30         13.442796       13.443011   0.000000   0.000000
     31         13.748690       13.751255   0.000000   0.000000
     32         15.242135       15.241912   0.000000   0.000000
     33         15.623368       15.622564   0.000000   0.000000
     34         15.623824       15.623357   0.000000   0.000000
     35         16.451205       16.450902   0.000000   0.000000
     36         16.700776       16.703442   0.000000   0.000000
     37         17.247238       17.247039   0.000000   0.000000
     38         17.545370       17.545844   0.000000   0.000000
     39         18.299656       18.299206   0.000000   0.000000
     40         18.657325       18.657388   0.000000   0.000000
     41         19.059856       19.059526   0.000000   0.000000
     42         19.511352       19.510955   0.000000   0.000000
     43         19.757324       19.756415   0.000000   0.000000
     44         20.057980       20.058074   0.000000   0.000000
     45         20.060527       20.059870   0.000000   0.000000
     46         20.386365       20.386360   0.000000   0.000000
     47         20.423365       20.423135   0.000000   0.000000
     48         20.661762       20.661443   0.000000   0.000000
     49         21.252677       21.252451   0.000000   0.000000
     50         21.456808       21.456448   0.000000   0.000000
     51         21.704561       21.704287   0.000000   0.000000
     52         21.795491       21.795377   0.000000   0.000000
     53         22.256923       22.256867   0.000000   0.000000
     54         22.471840       22.470939   0.000000   0.000000
     55         22.779400       22.780078   0.000000   0.000000
     56         23.160518       23.160452   0.000000   0.000000
     57         23.168696       23.168261   0.000000   0.000000
     58         23.829111       23.829281   0.000000   0.000000
     59         24.001062       24.001171   0.000000   0.000000
     60         24.072310       24.071881   0.000000   0.000000
     61         24.401802       24.401814   0.000000   0.000000
     62         24.965091       24.966184   0.000000   0.000000
     63         25.786930       25.763328   0.000000   0.000000
     64         26.039702       26.108041   0.000000   0.000000
 
  0.3333333E+00  0.0000000E+00  0.0000000E+00  0.7407407E-01
      1        -17.420095      -17.413340   1.000000   1.000000
      2        -16.683470      -16.676002   1.000000   1.000000
      3         -9.126377       -9.125178   1.000000   1.000000
      4         -7.731835       -7.729417   1.000000   1.000000
      5         -7.723496       -7.720563   1.000000   1.000000
      6         -6.022097       -6.022597   1.000000   1.000000
      7         -4.917107       -4.912701   1.000000   1.000000
      8         -4.370346       -4.365618   1.000000   1.000000
      9         -4.018511       -4.022642   1.000000   1.000000
     10          0.670461        0.666963   0.000000   0.000000
     11          0.719826        0.714882   0.000000   0.000000
     12          1.945221        1.941434   0.000000   0.000000
     13          2.868908        2.867413   0.000000   0.000000
     14          4.994178        4.993987   0.000000   0.000000
     15          5.323617        5.323515   0.000000   0.000000
     16          5.562636        5.562084   0.000000   0.000000
     17          6.179642        6.179345   0.000000   0.000000
     18          6.561116        6.561404   0.000000   0.000000
     19          7.523550        7.523344   0.000000   0.000000
     20          7.595852        7.595424   0.000000   0.000000
     21          9.028585        9.028509   0.000000   0.000000
     22          9.493755        9.493532   0.000000   0.000000
     23         10.511192       10.511441   0.000000   0.000000
     24         10.604163       10.604585   0.000000   0.000000
     25         11.053888       11.054449   0.000000   0.000000
     26         11.407616       11.408890   0.000000   0.000000
     27         12.501155       12.500915   0.000000   0.000000
     28         12.537769       12.537266   0.000000   0.000000
     29         12.952666       12.952595   0.000000   0.000000
     30         13.256838       13.260852   0.000000   0.000000
     31         13.419039       13.420173   0.000000   0.000000
     32         13.633877       13.634032   0.000000   0.000000
     33         14.418349       14.418635   0.000000   0.000000
     34         14.537218       14.541624   0.000000   0.000000
     35         15.030867       15.031369   0.000000   0.000000
     36         15.666646       15.666314   0.000000   0.000000
     37         16.353313       16.353212   0.000000   0.000000
     38         16.951223       16.950805   0.000000   0.000000
     39         17.199156       17.202138   0.000000   0.000000
     40         18.371732       18.371550   0.000000   0.000000
     41         18.397565       18.397155   0.000000   0.000000
     42         18.565690       18.564937   0.000000   0.000000
     43         18.743854       18.744247   0.000000   0.000000
     44         19.117969       19.117380   0.000000   0.000000
     45         19.338857       19.338442   0.000000   0.000000
     46         19.552051       19.551798   0.000000   0.000000
     47         19.640348       19.640136   0.000000   0.000000
     48         19.914231       19.913490   0.000000   0.000000
     49         20.229781       20.229738   0.000000   0.000000
     50         21.057780       21.057839   0.000000   0.000000
     51         21.180244       21.179565   0.000000   0.000000
     52         21.225387       21.224953   0.000000   0.000000
     53         21.362806       21.363151   0.000000   0.000000
     54         22.204907       22.205425   0.000000   0.000000
     55         22.542643       22.542465   0.000000   0.000000
     56         23.232301       23.232677   0.000000   0.000000
     57         23.341224       23.344173   0.000000   0.000000
     58         23.430848       23.429822   0.000000   0.000000
     59         23.798296       23.795717   0.000000   0.000000
     60         24.300427       24.289661   0.000000   0.000000
     61         24.365500       24.377117   0.000000   0.000000
     62         24.929347       24.973808   0.000000   0.000000
     63         25.573459       25.472674   0.000000   0.000000
     64         26.192654       26.350141   0.000000   0.000000
 
  0.4444444E+00  0.0000000E+00  0.0000000E+00  0.7407407E-01
      1        -16.778244      -16.770944   1.000000   1.000000
      2        -16.441958      -16.434593   1.000000   1.000000
      3         -9.840018       -9.837497   1.000000   1.000000
      4         -8.386176       -8.382196   1.000000   1.000000
      5         -7.655576       -7.655121   1.000000   1.000000
      6         -6.375245       -6.375676   1.000000   1.000000
      7         -5.147712       -5.144729   1.000000   1.000000
      8         -4.030809       -4.022994   1.000000   1.000000
      9         -3.826082       -3.828294   1.000000   1.000000
     10          1.017409        1.008465   0.000000   0.000000
     11          1.357146        1.351878   0.000000   0.000000
     12          2.348515        2.346301   0.000000   0.000000
     13          3.102623        3.100981   0.000000   0.000000
     14          3.868696        3.866727   0.000000   0.000000
     15          5.927308        5.927830   0.000000   0.000000
     16          6.107039        6.107664   0.000000   0.000000
     17          7.136698        7.135797   0.000000   0.000000
     18          7.509773        7.509498   0.000000   0.000000
     19          8.138079        8.138472   0.000000   0.000000
     20          8.296126        8.295263   0.000000   0.000000
     21          8.961588        8.961401   0.000000   0.000000
     22          9.134785        9.134556   0.000000   0.000000
     23          9.754404        9.753937   0.000000   0.000000
     24          9.842794        9.843549   0.000000   0.000000
     25         10.318491       10.317790   0.000000   0.000000
     26         10.585135       10.584721   0.000000   0.000000
     27         11.021237       11.020898   0.000000   0.000000
     28         11.396425       11.396463   0.000000   0.000000
     29         12.632151       12.631999   0.000000   0.000000
     30         12.641472       12.641408   0.000000   0.000000
     31         13.866558       13.866615   0.000000   0.000000
     32         14.341528       14.341753   0.000000   0.000000
     33         14.441663       14.444873   0.000000   0.000000
     34         15.007277       15.008053   0.000000   0.000000
     35         15.927155       15.927989   0.000000   0.000000
     36         16.345284       16.349042   0.000000   0.000000
     37         16.558207       16.558921   0.000000   0.000000
     38         16.894481       16.894658   0.000000   0.000000
     39         17.450911       17.451573   0.000000   0.000000
     40         17.451397       17.455648   0.000000   0.000000
     41         17.608374       17.608576   0.000000   0.000000
     42         18.046354       18.046803   0.000000   0.000000
     43         18.421346       18.421041   0.000000   0.000000
     44         18.888176       18.888181   0.000000   0.000000
     45         18.920800       18.920437   0.000000   0.000000
     46         19.021867       19.021860   0.000000   0.000000
     47         19.183898       19.183941   0.000000   0.000000
     48         19.382634       19.383129   0.000000   0.000000
     49         20.097852       20.097994   0.000000   0.000000
     50         20.478367       20.477880   0.000000   0.000000
     51         20.607452       20.607227   0.000000   0.000000
     52         20.681287       20.681300   0.000000   0.000000
     53         20.963744       20.964749   0.000000   0.000000
     54         21.374653       21.374108   0.000000   0.000000
     55         21.594836       21.594546   0.000000   0.000000
     56         22.915183       22.913917   0.000000   0.000000
     57         22.989638       22.989717   0.000000   0.000000
     58         23.181871       23.182533   0.000000   0.000000
     59         23.559504       23.549257   0.000000   0.000000
     60         23.986402       24.054096   0.000000   0.000000
     61         24.270889       24.290895   0.000000   0.000000
     62         24.629946       24.612052   0.000000   0.000000
     63         25.067122       25.075597   0.000000   0.000000
     64         25.155927       25.205986   0.000000   0.000000
 
  0.1111111E+00  0.1111111E+00  0.0000000E+00  0.7407407E-01
      1        -18.421569      -18.415541   1.000000   1.000000
      2        -17.087220      -17.079601   1.000000   1.000000
      3         -9.078018       -9.076979   1.000000   1.000000
      4         -7.161815       -7.161742   1.000000   1.000000
      5         -6.308749       -6.307442   1.000000   1.000000
      6         -5.539708       -5.539840   1.000000   1.000000
      7         -5.224679       -5.224379   1.000000   1.000000
      8         -4.098499       -4.092868   1.000000   1.000000
      9         -3.230044       -3.235159   1.000000   1.000000
     10          0.293059        0.293753   0.000000   0.000000
     11          0.795964        0.796152   0.000000   0.000000
     12          0.971269        0.966498   0.000000   0.000000
     13          2.224496        2.223501   0.000000   0.000000
     14          3.950003        3.949151   0.000000   0.000000
     15          4.088274        4.087583   0.000000   0.000000
     16          4.815326        4.815087   0.000000   0.000000
     17          5.875214        5.875244   0.000000   0.000000
     18          6.259671        6.260788   0.000000   0.000000
     19          7.256579        7.256638   0.000000   0.000000
     20          7.857935        7.859389   0.000000   0.000000
     21          8.487893        8.488665   0.000000   0.000000
     22          8.799001        8.800152   0.000000   0.000000
     23          9.929852        9.931583   0.000000   0.000000
     24         10.009565       10.009894   0.000000   0.000000
     25         10.706534       10.707509   0.000000   0.000000
     26         11.296795       11.299273   0.000000   0.000000
     27         11.731624       11.734246   0.000000   0.000000
     28         12.641376       12.642033   0.000000   0.000000
     29         12.965535       12.966056   0.000000   0.000000
     30         13.834286       13.836016   0.000000   0.000000
     31         13.931625       13.932811   0.000000   0.000000
     32         15.737223       15.738165   0.000000   0.000000
     33         15.886199       15.887850   0.000000   0.000000
     34         17.198384       17.198805   0.000000   0.000000
     35         17.418903       17.418275   0.000000   0.000000
     36         17.464875       17.464175   0.000000   0.000000
     37         17.500428       17.500282   0.000000   0.000000
     38         17.650666       17.649810   0.000000   0.000000
     39         17.987162       17.987029   0.000000   0.000000
     40         18.268790       18.268747   0.000000   0.000000
     41         18.393486       18.393078   0.000000   0.000000
     42         18.939455       18.939929   0.000000   0.000000
     43         19.275481       19.275526   0.000000   0.000000
     44         19.582023       19.582345   0.000000   0.000000
     45         20.000089       20.000077   0.000000   0.000000
     46         20.525137       20.524718   0.000000   0.000000
     47         21.133233       21.132567   0.000000   0.000000
     48         21.294540       21.294185   0.000000   0.000000
     49         21.478885       21.478274   0.000000   0.000000
     50         22.115482       22.116127   0.000000   0.000000
     51         22.247222       22.246864   0.000000   0.000000
     52         22.537079       22.536703   0.000000   0.000000
     53         22.815221       22.815806   0.000000   0.000000
     54         23.222317       23.221867   0.000000   0.000000
     55         23.608708       23.607063   0.000000   0.000000
     56         23.841839       23.839121   0.000000   0.000000
     57         24.180609       24.180041   0.000000   0.000000
     58         24.316072       24.311903   0.000000   0.000000
     59         24.377087       24.371392   0.000000   0.000000
     60         24.609931       24.602234   0.000000   0.000000
     61         24.839955       24.827169   0.000000   0.000000
     62         25.276456       25.260143   0.000000   0.000000
     63         25.351759       25.309726   0.000000   0.000000
     64         25.785048       25.971221   0.000000   0.000000
 
  0.2222222E+00  0.1111111E+00  0.0000000E+00  0.1481481E+00
      1        -17.705055      -17.698512   1.000000   1.000000
      2        -16.792008      -16.784482   1.000000   1.000000
      3         -8.704223       -8.703610   1.000000   1.000000
      4         -7.808113       -7.805699   1.000000   1.000000
      5         -7.223922       -7.221562   1.000000   1.000000
      6         -6.330387       -6.330521   1.000000   1.000000
      7         -5.031179       -5.028147   1.000000   1.000000
      8         -4.400386       -4.394944   1.000000   1.000000
      9         -3.666587       -3.670744   1.000000   1.000000
     10          0.117227        0.115258   0.000000   0.000000
     11          0.935717        0.931584   0.000000   0.000000
     12          1.384471        1.379275   0.000000   0.000000
     13          2.917629        2.915813   0.000000   0.000000
     14          4.841101        4.840348   0.000000   0.000000
     15          5.003992        5.003475   0.000000   0.000000
     16          5.717874        5.717806   0.000000   0.000000
     17          6.419381        6.419998   0.000000   0.000000
     18          6.676575        6.676911   0.000000   0.000000
     19          7.646246        7.646005   0.000000   0.000000
     20          7.758341        7.759529   0.000000   0.000000
     21          8.859544        8.859880   0.000000   0.000000
     22          9.325671        9.326073   0.000000   0.000000
     23         10.317588       10.317885   0.000000   0.000000
     24         10.416248       10.417536   0.000000   0.000000
     25         10.628771       10.629841   0.000000   0.000000
     26         11.153818       11.154813   0.000000   0.000000
     27         11.444216       11.446446   0.000000   0.000000
     28         12.952308       12.953218   0.000000   0.000000
     29         13.532227       13.533332   0.000000   0.000000
     30         13.820007       13.820277   0.000000   0.000000
     31         13.938996       13.939446   0.000000   0.000000
     32         14.360738       14.362170   0.000000   0.000000
     33         14.516688       14.516738   0.000000   0.000000
     34         15.123292       15.123385   0.000000   0.000000
     35         15.832661       15.833426   0.000000   0.000000
     36         16.180051       16.179595   0.000000   0.000000
     37         16.346299       16.345886   0.000000   0.000000
     38         16.432059       16.432059   0.000000   0.000000
     39         17.067841       17.067564   0.000000   0.000000
     40         17.206521       17.207596   0.000000   0.000000
     41         17.379793       17.379418   0.000000   0.000000
     42         18.124189       18.124648   0.000000   0.000000
     43         18.532879       18.533439   0.000000   0.000000
     44         18.938384       18.938575   0.000000   0.000000
     45         19.140261       19.139656   0.000000   0.000000
     46         19.533955       19.534004   0.000000   0.000000
     47         20.367234       20.366966   0.000000   0.000000
     48         20.666442       20.666279   0.000000   0.000000
     49         21.190590       21.190655   0.000000   0.000000
     50         21.406296       21.406792   0.000000   0.000000
     51         21.965059       21.964748   0.000000   0.000000
     52         22.302276       22.302764   0.000000   0.000000
     53         22.638702       22.638545   0.000000   0.000000
     54         22.949685       22.949155   0.000000   0.000000
     55         23.191692       23.191240   0.000000   0.000000
     56         23.450259       23.450076   0.000000   0.000000
     57         23.629545       23.630112   0.000000   0.000000
     58         24.040330       24.038803   0.000000   0.000000
     59         24.131471       24.130386   0.000000   0.000000
     60         24.520646       24.519655   0.000000   0.000000
     61         24.723983       24.722257   0.000000   0.000000
     62         25.175089       25.184510   0.000000   0.000000
     63         25.289359       25.238591   0.000000   0.000000
     64         25.985891       26.023502   0.000000   0.000000
 
  0.3333333E+00  0.1111111E+00  0.0000000E+00  0.1481481E+00
      1        -16.951261      -16.944104   1.000000   1.000000
      2        -16.492947      -16.485515   1.000000   1.000000
      3         -9.383170       -9.381057   1.000000   1.000000
      4         -8.212654       -8.209818   1.000000   1.000000
      5         -7.566635       -7.565183   1.000000   1.000000
      6         -6.514016       -6.513374   1.000000   1.000000
      7         -5.128080       -5.124195   1.000000   1.000000
      8         -4.907236       -4.903434   1.000000   1.000000
      9         -3.518541       -3.519730   1.000000   1.000000