PROCAR lm decomposed
# of k-points:   74         # of bands:   64         # of ions:    3

 k-point     1 :    0.00000000 0.00000000 0.00000000     weight = 0.01234568

band     1 # energy  -19.05783553 # occ.  1.00000000
 
ion      s     py     pz     px    dxy    dyz    dz2    dxz  x2-y2    tot
    1  0.214  0.000  0.000  0.000  0.000  0.000  0.000  0.000  0.000  0.214
    2  0.259  0.000  0.007  0.000  0.000  0.000  0.000  0.000  0.000  0.266
    3  0.259  0.000  0.007  0.000  0.000  0.000  0.000  0.000  0.000  0.266
tot    0.731  0.000  0.013  0.000  0.000  0.000  0.000  0.000  0.000  0.745
 
band     2 # energy  -17.35363493 # occ.  1.00000000
 
ion      s     py     pz     px    dxy    dyz    dz2    dxz  x2-y2    tot
    1  0.000  0.000  0.072  0.000  0.000  0.000  0.000  0.000  0.000  0.072
    2  0.312  0.000  0.001  0.000  0.000  0.000  0.000  0.000  0.000  0.312
    3  0.312  0.000  0.001  0.000  0.000  0.000  0.000  0.000  0.000  0.312
tot    0.624  0.000  0.073  0.000  0.000  0.000  0.000  0.000  0.000  0.696
 
band     3 # energy   -9.83759319 # occ.  1.00000000
 
ion      s     py     pz     px    dxy    dyz    dz2    dxz  x2-y2    tot
    1  0.191  0.000  0.000  0.000  0.000  0.000  0.212  0.000  0.000  0.403
    2  0.030  0.000  0.115  0.000  0.000  0.000  0.000  0.000  0.000  0.145
    3  0.030  0.000  0.115  0.000  0.000  0.000  0.000  0.000  0.000  0.145
tot    0.251  0.000  0.230  0.000  0.000  0.000  0.212  0.000  0.000  0.693
 
band     4 # energy   -5.79474029 # occ.  1.00000000
 
ion      s     py     pz     px    dxy    dyz    dz2    dxz  x2-y2    tot
    1  0.000  0.000  0.000  0.008  0.609  0.000  0.000  0.000  0.011  0.629
    2  0.000  0.002  0.000  0.122  0.000  0.000  0.000  0.000  0.000  0.124
    3  0.000  0.002  0.000  0.122  0.000  0.000  0.000  0.000  0.000  0.124
tot    0.000  0.005  0.000  0.252  0.609  0.000  0.000  0.000  0.011  0.877
 
band     5 # energy   -5.79474008 # occ.  1.00000000
 
ion      s     py     pz     px    dxy    dyz    dz2    dxz  x2-y2    tot
    1  0.000  0.008  0.000  0.000  0.011  0.000  0.000  0.000  0.609  0.629
    2  0.000  0.122  0.000  0.002  0.000  0.000  0.000  0.000  0.000  0.124
    3  0.000  0.122  0.000  0.002  0.000  0.000  0.000  0.000  0.000  0.124
tot    0.000  0.252  0.000  0.005  0.011  0.000  0.000  0.000  0.609  0.877
 
band     6 # energy   -5.13415033 # occ.  1.00000000
 
ion      s     py     pz     px    dxy    dyz    dz2    dxz  x2-y2    tot
    1  0.000  0.000  0.071  0.000  0.000  0.000  0.000  0.000  0.000  0.071
    2  0.000  0.000  0.246  0.000  0.000  0.000  0.000  0.000  0.000  0.246
    3  0.000  0.000  0.246  0.000  0.000  0.000  0.000  0.000  0.000  0.246
tot    0.000  0.000  0.562  0.000  0.000  0.000  0.000  0.000  0.000  0.562
 
band     7 # energy   -4.32247194 # occ.  1.00000000
 
ion      s     py     pz     px    dxy    dyz    dz2    dxz  x2-y2    tot
    1  0.000  0.000  0.000  0.000  0.000  0.432  0.000  0.081  0.000  0.512
    2  0.000  0.150  0.000  0.028  0.000  0.000  0.000  0.000  0.000  0.178
    3  0.000  0.150  0.000  0.028  0.000  0.000  0.000  0.000  0.000  0.178
tot    0.000  0.300  0.000  0.056  0.000  0.432  0.000  0.081  0.000  0.868
 
band     8 # energy   -4.32247155 # occ.  1.00000000
 
ion      s     py     pz     px    dxy    dyz    dz2    dxz  x2-y2    tot
    1  0.000  0.000  0.000  0.000  0.000  0.081  0.000  0.432  0.000  0.512
    2  0.000  0.028  0.000  0.150  0.000  0.000  0.000  0.000  0.000  0.178
    3  0.000  0.028  0.000  0.150  0.000  0.000  0.000  0.000  0.000  0.178
tot    0.000  0.056  0.000  0.300  0.000  0.081  0.000  0.432  0.000  0.868
 
band     9 # energy   -2.77274024 # occ.  1.00000000
 
ion      s     py     pz     px    dxy    dyz    dz2    dxz  x2-y2    tot
    1  0.014  0.000  0.000  0.000  0.000  0.000  0.623  0.000  0.000  0.637
    2  0.003  0.000  0.069  0.000  0.000  0.000  0.000  0.000  0.000  0.072
    3  0.003  0.000  0.069  0.000  0.000  0.000  0.000  0.000  0.000  0.072
tot    0.019  0.000  0.139  0.000  0.000  0.000  0.623  0.000  0.000  0.781
 
band    10 # energy    1.14939575 # occ.  0.00000000
 
ion      s     py     pz     px    dxy    dyz    dz2    dxz  x2-y2    tot
    1  0.000  0.000  0.000  0.000  0.000  0.046  0.000  0.371  0.000  0.417
    2  0.000  0.017  0.000  0.140  0.000  0.000  0.000  0.000  0.000  0.157
    3  0.000  0.017  0.000  0.140  0.000  0.000  0.000  0.000  0.000  0.157
tot    0.000  0.035  0.000  0.279  0.000  0.046  0.000  0.371  0.000  0.732
 
band    11 # energy    1.14939596 # occ.  0.00000000
 
ion      s     py     pz     px    dxy    dyz    dz2    dxz  x2-y2    tot
    1  0.000  0.000  0.000  0.000  0.000  0.371  0.000  0.046  0.000  0.417
    2  0.000  0.140  0.000  0.017  0.000  0.000  0.000  0.000  0.000  0.157
    3  0.000  0.140  0.000  0.017  0.000  0.000  0.000  0.000  0.000  0.157
tot    0.000  0.279  0.000  0.035  0.000  0.371  0.000  0.046  0.000  0.732
 
band    12 # energy    1.24440355 # occ.  0.00000000
 
ion      s     py     pz     px    dxy    dyz    dz2    dxz  x2-y2    tot
    1  0.000  0.013  0.000  0.011  0.148  0.000  0.000  0.000  0.174  0.346
    2  0.000  0.118  0.000  0.100  0.000  0.000  0.000  0.000  0.000  0.218
    3  0.000  0.118  0.000  0.100  0.000  0.000  0.000  0.000  0.000  0.218
tot    0.000  0.249  0.000  0.211  0.148  0.000  0.000  0.000  0.174  0.782
 
band    13 # energy    1.24440362 # occ.  0.00000000
 
ion      s     py     pz     px    dxy    dyz    dz2    dxz  x2-y2    tot
    1  0.000  0.011  0.000  0.013  0.174  0.000  0.000  0.000  0.148  0.346
    2  0.000  0.100  0.000  0.118  0.000  0.000  0.000  0.000  0.000  0.218
    3  0.000  0.100  0.000  0.118  0.000  0.000  0.000  0.000  0.000  0.218
tot    0.000  0.211  0.000  0.249  0.174  0.000  0.000  0.000  0.148  0.782
 
band    14 # energy    3.10070344 # occ.  0.00000000
 
ion      s     py     pz     px    dxy    dyz    dz2    dxz  x2-y2    tot
    1  0.046  0.000  0.000  0.000  0.000  0.000  0.022  0.000  0.000  0.068
    2  0.027  0.000  0.001  0.000  0.000  0.000  0.000  0.000  0.000  0.027
    3  0.027  0.000  0.001  0.000  0.000  0.000  0.000  0.000  0.000  0.027
tot    0.099  0.000  0.001  0.000  0.000  0.000  0.022  0.000  0.000  0.122
 
band    15 # energy    3.33590878 # occ.  0.00000000
 
ion      s     py     pz     px    dxy    dyz    dz2    dxz  x2-y2    tot
    1  0.000  0.000  0.002  0.000  0.000  0.000  0.000  0.000  0.000  0.002
    2  0.002  0.000  0.014  0.000  0.000  0.000  0.000  0.000  0.000  0.016
    3  0.002  0.000  0.014  0.000  0.000  0.000  0.000  0.000  0.000  0.016
tot    0.004  0.000  0.030  0.000  0.000  0.000  0.000  0.000  0.000  0.034
 
band    16 # energy    3.83878938 # occ.  0.00000000
 
ion      s     py     pz     px    dxy    dyz    dz2    dxz  x2-y2    tot
    1  0.101  0.000  0.000  0.000  0.000  0.000  0.008  0.000  0.000  0.109
    2  0.050  0.000  0.009  0.000  0.000  0.000  0.000  0.000  0.000  0.059
    3  0.050  0.000  0.009  0.000  0.000  0.000  0.000  0.000  0.000  0.059
tot    0.201  0.000  0.019  0.000  0.000  0.000  0.008  0.000  0.000  0.228
 
band    17 # energy    4.33170828 # occ.  0.00000000
 
ion      s     py     pz     px    dxy    dyz    dz2    dxz  x2-y2    tot
    1  0.053  0.000  0.000  0.000  0.000  0.000  0.002  0.000  0.000  0.055
    2  0.020  0.000  0.033  0.000  0.000  0.000  0.000  0.000  0.000  0.053
    3  0.020  0.000  0.033  0.000  0.000  0.000  0.000  0.000  0.000  0.053
tot    0.092  0.000  0.066  0.000  0.000  0.000  0.002  0.000  0.000  0.161
 
band    18 # energy    5.16695947 # occ.  0.00000000
 
ion      s     py     pz     px    dxy    dyz    dz2    dxz  x2-y2    tot
    1  0.000  0.000  0.001  0.000  0.000  0.000  0.000  0.000  0.000  0.001
    2  0.002  0.000  0.012  0.000  0.000  0.000  0.000  0.000  0.000  0.014
    3  0.002  0.000  0.012  0.000  0.000  0.000  0.000  0.000  0.000  0.014
tot    0.005  0.000  0.025  0.000  0.000  0.000  0.000  0.000  0.000  0.030
 
band    19 # energy    6.36199550 # occ.  0.00000000
 
ion      s     py     pz     px    dxy    dyz    dz2    dxz  x2-y2    tot
    1  0.002  0.000  0.000  0.000  0.000  0.000  0.018  0.000  0.000  0.021
    2  0.003  0.000  0.009  0.000  0.000  0.000  0.000  0.000  0.000  0.013
    3  0.003  0.000  0.009  0.000  0.000  0.000  0.000  0.000  0.000  0.013
tot    0.009  0.000  0.019  0.000  0.000  0.000  0.018  0.000  0.000  0.046
 
band    20 # energy    7.31184814 # occ.  0.00000000
 
ion      s     py     pz     px    dxy    dyz    dz2    dxz  x2-y2    tot
    1  0.000  0.000  0.089  0.000  0.000  0.000  0.000  0.000  0.000  0.089
    2  0.080  0.000  0.000  0.000  0.000  0.000  0.000  0.000  0.000  0.080
    3  0.080  0.000  0.000  0.000  0.000  0.000  0.000  0.000  0.000  0.080
tot    0.159  0.000  0.090  0.000  0.000  0.000  0.000  0.000  0.000  0.249
 
band    21 # energy    8.03136772 # occ.  0.00000000
 
ion      s     py     pz     px    dxy    dyz    dz2    dxz  x2-y2    tot
    1  0.000  0.000  0.004  0.000  0.000  0.000  0.000  0.000  0.000  0.004
    2  0.010  0.000  0.015  0.000  0.000  0.000  0.000  0.000  0.000  0.025
    3  0.010  0.000  0.015  0.000  0.000  0.000  0.000  0.000  0.000  0.025
tot    0.020  0.000  0.033  0.000  0.000  0.000  0.000  0.000  0.000  0.054
 
band    22 # energy    9.33526633 # occ.  0.00000000
 
ion      s     py     pz     px    dxy    dyz    dz2    dxz  x2-y2    tot
    1  0.032  0.000  0.000  0.000  0.000  0.000  0.039  0.000  0.000  0.071
    2  0.011  0.000  0.000  0.000  0.000  0.000  0.000  0.000  0.000  0.011
    3  0.011  0.000  0.000  0.000  0.000  0.000  0.000  0.000  0.000  0.011
tot    0.055  0.000  0.000  0.000  0.000  0.000  0.039  0.000  0.000  0.094
 
band    23 # energy    9.35038655 # occ.  0.00000000
 
ion      s     py     pz     px    dxy    dyz    dz2    dxz  x2-y2    tot
    1  0.000  0.022  0.000  0.127  0.016  0.000  0.000  0.000  0.003  0.167
    2  0.000  0.001  0.000  0.004  0.000  0.000  0.000  0.000  0.000  0.005
    3  0.000  0.001  0.000  0.004  0.000  0.000  0.000  0.000  0.000  0.005
tot    0.000  0.023  0.000  0.135  0.016  0.000  0.000  0.000  0.003  0.176
 
band    24 # energy    9.35038687 # occ.  0.00000000
 
ion      s     py     pz     px    dxy    dyz    dz2    dxz  x2-y2    tot
    1  0.000  0.127  0.000  0.022  0.003  0.000  0.000  0.000  0.016  0.167
    2  0.000  0.004  0.000  0.001  0.000  0.000  0.000  0.000  0.000  0.005
    3  0.000  0.004  0.000  0.001  0.000  0.000  0.000  0.000  0.000  0.005
tot    0.000  0.135  0.000  0.023  0.003  0.000  0.000  0.000  0.016  0.176
 
band    25 # energy   11.40353560 # occ.  0.00000000
 
ion      s     py     pz     px    dxy    dyz    dz2    dxz  x2-y2    tot
    1  0.115  0.000  0.000  0.000  0.000  0.000  0.104  0.000  0.000  0.220
    2  0.000  0.000  0.078  0.000  0.000  0.000  0.000  0.000  0.000  0.079
    3  0.000  0.000  0.078  0.000  0.000  0.000  0.000  0.000  0.000  0.079
tot    0.116  0.000  0.156  0.000  0.000  0.000  0.104  0.000  0.000  0.377
 
band    26 # energy   11.74362270 # occ.  0.00000000
 
ion      s     py     pz     px    dxy    dyz    dz2    dxz  x2-y2    tot
    1  0.000  0.000  0.000  0.000  0.000  0.025  0.000  0.053  0.000  0.078
    2  0.000  0.002  0.000  0.005  0.000  0.000  0.000  0.000  0.000  0.007
    3  0.000  0.002  0.000  0.005  0.000  0.000  0.000  0.000  0.000  0.007
tot    0.000  0.004  0.000  0.010  0.000  0.025  0.000  0.053  0.000  0.092
 
band    27 # energy   11.74362281 # occ.  0.00000000
 
ion      s     py     pz     px    dxy    dyz    dz2    dxz  x2-y2    tot
    1  0.000  0.000  0.000  0.000  0.000  0.053  0.000  0.025  0.000  0.078
    2  0.000  0.005  0.000  0.002  0.000  0.000  0.000  0.000  0.000  0.007
    3  0.000  0.005  0.000  0.002  0.000  0.000  0.000  0.000  0.000  0.007
tot    0.000  0.010  0.000  0.004  0.000  0.053  0.000  0.025  0.000  0.092
 
band    28 # energy   11.85581692 # occ.  0.00000000
 
ion      s     py     pz     px    dxy    dyz    dz2    dxz  x2-y2    tot
    1  0.000  0.000  0.001  0.000  0.000  0.000  0.000  0.000  0.000  0.001
    2  0.009  0.000  0.011  0.000  0.000  0.000  0.000  0.000  0.000  0.021
    3  0.009  0.000  0.011  0.000  0.000  0.000  0.000  0.000  0.000  0.021
tot    0.019  0.000  0.023  0.000  0.000  0.000  0.000  0.000  0.000  0.042
 
band    29 # energy   13.33185014 # occ.  0.00000000
 
ion      s     py     pz     px    dxy    dyz    dz2    dxz  x2-y2    tot
    1  0.000  0.000  0.000  0.000  0.000  0.000  0.008  0.000  0.000  0.008
    2  0.024  0.000  0.007  0.000  0.000  0.000  0.000  0.000  0.000  0.031
    3  0.024  0.000  0.007  0.000  0.000  0.000  0.000  0.000  0.000  0.031
tot    0.049  0.000  0.015  0.000  0.000  0.000  0.008  0.000  0.000  0.071
 
band    30 # energy   14.64991782 # occ.  0.00000000
 
ion      s     py     pz     px    dxy    dyz    dz2    dxz  x2-y2    tot
    1  0.000  0.000  0.003  0.000  0.000  0.000  0.000  0.000  0.000  0.003
    2  0.004  0.000  0.024  0.000  0.000  0.000  0.000  0.000  0.000  0.028
    3  0.004  0.000  0.024  0.000  0.000  0.000  0.000  0.000  0.000  0.028
tot    0.008  0.000  0.050  0.000  0.000  0.000  0.000  0.000  0.000  0.058
 
band    31 # energy   15.48542388 # occ.  0.00000000
 
ion      s     py     pz     px    dxy    dyz    dz2    dxz  x2-y2    tot
    1  0.000  0.000  0.000  0.000  0.000  0.009  0.000  0.088  0.000  0.097
    2  0.000  0.000  0.000  0.000  0.000  0.000  0.000  0.000  0.000  0.000
    3  0.000  0.000  0.000  0.000  0.000  0.000  0.000  0.000  0.000  0.000
tot    0.000  0.000  0.000  0.000  0.000  0.009  0.000  0.088  0.000  0.097
 
band    32 # energy   15.48542544 # occ.  0.00000000
 
ion      s     py     pz     px    dxy    dyz    dz2    dxz  x2-y2    tot
    1  0.000  0.000  0.000  0.000  0.000  0.088  0.000  0.009  0.000  0.097
    2  0.000  0.000  0.000  0.000  0.000  0.000  0.000  0.000  0.000  0.000
    3  0.000  0.000  0.000  0.000  0.000  0.000  0.000  0.000  0.000  0.000
tot    0.000  0.000  0.000  0.000  0.000  0.088  0.000  0.009  0.000  0.097
 
band    33 # energy   15.84726820 # occ.  0.00000000
 
ion      s     py     pz     px    dxy    dyz    dz2    dxz  x2-y2    tot
    1  0.000  0.050  0.000  0.045  0.059  0.000  0.000  0.000  0.065  0.220
    2  0.000  0.000  0.000  0.000  0.000  0.000  0.000  0.000  0.000  0.001
    3  0.000  0.000  0.000  0.000  0.000  0.000  0.000  0.000  0.000  0.001
tot    0.000  0.051  0.000  0.046  0.059  0.000  0.000  0.000  0.065  0.222
 
band    34 # energy   15.84726821 # occ.  0.00000000
 
ion      s     py     pz     px    dxy    dyz    dz2    dxz  x2-y2    tot
    1  0.000  0.045  0.000  0.050  0.065  0.000  0.000  0.000  0.059  0.220
    2  0.000  0.000  0.000  0.000  0.000  0.000  0.000  0.000  0.000  0.001
    3  0.000  0.000  0.000  0.000  0.000  0.000  0.000  0.000  0.000  0.001
tot    0.000  0.046  0.000  0.051  0.065  0.000  0.000  0.000  0.059  0.222
 
band    35 # energy   16.34969439 # occ.  0.00000000
 
ion      s     py     pz     px    dxy    dyz    dz2    dxz  x2-y2    tot
    1  0.025  0.000  0.000  0.000  0.000  0.000  0.033  0.000  0.000  0.058
    2  0.006  0.000  0.012  0.000  0.000  0.000  0.000  0.000  0.000  0.019
    3  0.006  0.000  0.012  0.000  0.000  0.000  0.000  0.000  0.000  0.019
tot    0.038  0.000  0.025  0.000  0.000  0.000  0.033  0.000  0.000  0.096
 
band    36 # energy   16.54564252 # occ.  0.00000000
 
ion      s     py     pz     px    dxy    dyz    dz2    dxz  x2-y2    tot
    1  0.000  0.000  0.003  0.000  0.000  0.000  0.000  0.000  0.000  0.003
    2  0.006  0.000  0.014  0.000  0.000  0.000  0.000  0.000  0.000  0.020
    3  0.006  0.000  0.014  0.000  0.000  0.000  0.000  0.000  0.000  0.020
tot    0.011  0.000  0.032  0.000  0.000  0.000  0.000  0.000  0.000  0.043
 
band    37 # energy   18.24496141 # occ.  0.00000000
 
ion      s     py     pz     px    dxy    dyz    dz2    dxz  x2-y2    tot
    1  0.000  0.000  0.297  0.000  0.000  0.000  0.000  0.000  0.000  0.297
    2  0.015  0.000  0.026  0.000  0.000  0.000  0.000  0.000  0.000  0.041
    3  0.015  0.000  0.026  0.000  0.000  0.000  0.000  0.000  0.000  0.041
tot    0.030  0.000  0.349  0.000  0.000  0.000  0.000  0.000  0.000  0.379
 
band    38 # energy   18.79668029 # occ.  0.00000000
 
ion      s     py     pz     px    dxy    dyz    dz2    dxz  x2-y2    tot
    1  0.004  0.000  0.000  0.000  0.000  0.000  0.077  0.000  0.000  0.081
    2  0.008  0.000  0.000  0.000  0.000  0.000  0.000  0.000  0.000  0.008
    3  0.008  0.000  0.000  0.000  0.000  0.000  0.000  0.000  0.000  0.008
tot    0.019  0.000  0.000  0.000  0.000  0.000  0.077  0.000  0.000  0.097
 
band    39 # energy   21.49354670 # occ.  0.00000000
 
ion      s     py     pz     px    dxy    dyz    dz2    dxz  x2-y2    tot
    1  0.000  0.106  0.000  0.078  0.017  0.000  0.000  0.000  0.023  0.224
    2  0.000  0.001  0.000  0.001  0.000  0.000  0.000  0.000  0.000  0.002
    3  0.000  0.001  0.000  0.001  0.000  0.000  0.000  0.000  0.000  0.002
tot    0.000  0.108  0.000  0.080  0.017  0.000  0.000  0.000  0.023  0.227
 
band    40 # energy   21.49355445 # occ.  0.00000000
 
ion      s     py     pz     px    dxy    dyz    dz2    dxz  x2-y2    tot
    1  0.000  0.078  0.000  0.106  0.023  0.000  0.000  0.000  0.017  0.224
    2  0.000  0.001  0.000  0.001  0.000  0.000  0.000  0.000  0.000  0.002
    3  0.000  0.001  0.000  0.001  0.000  0.000  0.000  0.000  0.000  0.002
tot    0.000  0.080  0.000  0.108  0.023  0.000  0.000  0.000  0.017  0.227
 
band    41 # energy   21.61804503 # occ.  0.00000000
 
ion      s     py     pz     px    dxy    dyz    dz2    dxz  x2-y2    tot
    1  0.017  0.000  0.000  0.000  0.000  0.000  0.001  0.000  0.000  0.018
    2  0.005  0.000  0.032  0.000  0.000  0.000  0.000  0.000  0.000  0.037
    3  0.005  0.000  0.032  0.000  0.000  0.000  0.000  0.000  0.000  0.037
tot    0.028  0.000  0.064  0.000  0.000  0.000  0.001  0.000  0.000  0.093
 
band    42 # energy   21.93629806 # occ.  0.00000000
 
ion      s     py     pz     px    dxy    dyz    dz2    dxz  x2-y2    tot
    1  0.000  0.000  0.000  0.000  0.000  0.000  0.000  0.000  0.000  0.000
    2  0.008  0.000  0.000  0.000  0.000  0.000  0.000  0.000  0.000  0.008
    3  0.008  0.000  0.000  0.000  0.000  0.000  0.000  0.000  0.000  0.008
tot    0.016  0.000  0.000  0.000  0.000  0.000  0.000  0.000  0.000  0.017
 
band    43 # energy   22.80054973 # occ.  0.00000000
 
ion      s     py     pz     px    dxy    dyz    dz2    dxz  x2-y2    tot
    1  0.000  0.000  0.000  0.000  0.000  0.006  0.000  0.018  0.000  0.025
    2  0.000  0.001  0.000  0.003  0.000  0.000  0.000  0.000  0.000  0.004
    3  0.000  0.001  0.000  0.003  0.000  0.000  0.000  0.000  0.000  0.004
tot    0.000  0.002  0.000  0.006  0.000  0.006  0.000  0.018  0.000  0.033
 
band    44 # energy   22.80071902 # occ.  0.00000000
 
ion      s     py     pz     px    dxy    dyz    dz2    dxz  x2-y2    tot
    1  0.000  0.000  0.000  0.000  0.000  0.018  0.000  0.006  0.000  0.025
    2  0.000  0.003  0.000  0.001  0.000  0.000  0.000  0.000  0.000  0.004
    3  0.000  0.003  0.000  0.001  0.000  0.000  0.000  0.000  0.000  0.004
tot    0.000  0.006  0.000  0.002  0.000  0.018  0.000  0.006  0.000  0.033
 
band    45 # energy   23.07162900 # occ.  0.00000000
 
ion      s     py     pz     px    dxy    dyz    dz2    dxz  x2-y2    tot
    1  0.000  0.000  0.032  0.000  0.000  0.000  0.000  0.000  0.000  0.032
    2  0.003  0.000  0.001  0.000  0.000  0.000  0.000  0.000  0.000  0.004
    3  0.003  0.000  0.001  0.000  0.000  0.000  0.000  0.000  0.000  0.004
tot    0.007  0.000  0.034  0.000  0.000  0.000  0.000  0.000  0.000  0.041
 
band    46 # energy   23.23087798 # occ.  0.00000000
 
ion      s     py     pz     px    dxy    dyz    dz2    dxz  x2-y2    tot
    1  0.000  0.000  0.000  0.000  0.000  0.000  0.011  0.000  0.000  0.011
    2  0.004  0.000  0.001  0.000  0.000  0.000  0.000  0.000  0.000  0.006
    3  0.005  0.000  0.001  0.000  0.000  0.000  0.000  0.000  0.000  0.006
tot    0.009  0.000  0.003  0.000  0.000  0.000  0.011  0.000  0.000  0.023
 
band    47 # energy   23.27866596 # occ.  0.00000000
 
ion      s     py     pz     px    dxy    dyz    dz2    dxz  x2-y2    tot
    1  0.000  0.013  0.000  0.004  0.004  0.000  0.000  0.000  0.013  0.035
    2  0.000  0.002  0.000  0.001  0.000  0.000  0.000  0.000  0.000  0.002
    3  0.000  0.002  0.000  0.001  0.000  0.000  0.000  0.000  0.000  0.003
tot    0.000  0.017  0.000  0.005  0.004  0.000  0.000  0.000  0.013  0.040
 
band    48 # energy   23.27888306 # occ.  0.00000000
 
ion      s     py     pz     px    dxy    dyz    dz2    dxz  x2-y2    tot
    1  0.000  0.004  0.000  0.014  0.013  0.000  0.000  0.000  0.004  0.035
    2  0.000  0.001  0.000  0.002  0.000  0.000  0.000  0.000  0.000  0.002
    3  0.000  0.001  0.000  0.002  0.000  0.000  0.000  0.000  0.000  0.002
tot    0.000  0.005  0.000  0.017  0.013  0.000  0.000  0.000  0.004  0.040
 
band    49 # energy   23.38785039 # occ.  0.00000000
 
ion      s     py     pz     px    dxy    dyz    dz2    dxz  x2-y2    tot
    1  0.000  0.000  0.000  0.000  0.000  0.003  0.000  0.003  0.000  0.006
    2  0.000  0.001  0.000  0.001  0.000  0.000  0.000  0.000  0.000  0.002
    3  0.000  0.001  0.000  0.001  0.000  0.000  0.000  0.000  0.000  0.002
tot    0.000  0.002  0.000  0.003  0.000  0.003  0.000  0.003  0.000  0.010
 
band    50 # energy   23.39101678 # occ.  0.00000000
 
ion      s     py     pz     px    dxy    dyz    dz2    dxz  x2-y2    tot
    1  0.000  0.000  0.000  0.000  0.000  0.003  0.000  0.003  0.000  0.006
    2  0.000  0.001  0.000  0.001  0.000  0.000  0.000  0.000  0.000  0.002
    3  0.000  0.001  0.000  0.001  0.000  0.000  0.000  0.000  0.000  0.002
tot    0.000  0.002  0.000  0.002  0.000  0.003  0.000  0.003  0.000  0.010
 
band    51 # energy   23.50075934 # occ.  0.00000000
 
ion      s     py     pz     px    dxy    dyz    dz2    dxz  x2-y2    tot
    1  0.003  0.000  0.000  0.000  0.000  0.000  0.014  0.000  0.000  0.018
    2  0.000  0.000  0.001  0.000  0.000  0.000  0.000  0.000  0.000  0.002
    3  0.001  0.000  0.002  0.000  0.000  0.000  0.000  0.000  0.000  0.002
tot    0.005  0.000  0.003  0.000  0.000  0.000  0.014  0.000  0.000  0.022
 
band    52 # energy   23.70119245 # occ.  0.00000000
 
ion      s     py     pz     px    dxy    dyz    dz2    dxz  x2-y2    tot
    1  0.000  0.003  0.016  0.002  0.000  0.000  0.000  0.000  0.001  0.023
    2  0.000  0.000  0.005  0.000  0.000  0.000  0.000  0.000  0.000  0.005
    3  0.000  0.000  0.005  0.000  0.000  0.000  0.000  0.000  0.000  0.005
tot    0.000  0.003  0.027  0.002  0.000  0.000  0.000  0.000  0.001  0.034
 
band    53 # energy   23.74169775 # occ.  0.00000000
 
ion      s     py     pz     px    dxy    dyz    dz2    dxz  x2-y2    tot
    1  0.000  0.013  0.002  0.015  0.004  0.000  0.000  0.000  0.003  0.036
    2  0.000  0.000  0.001  0.000  0.000  0.000  0.000  0.000  0.000  0.001
    3  0.000  0.000  0.001  0.000  0.000  0.000  0.000  0.000  0.000  0.001
tot    0.000  0.013  0.003  0.015  0.004  0.000  0.000  0.000  0.003  0.037
 
band    54 # energy   23.74837428 # occ.  0.00000000
 
ion      s     py     pz     px    dxy    dyz    dz2    dxz  x2-y2    tot
    1  0.000  0.014  0.001  0.014  0.004  0.000  0.000  0.000  0.003  0.037
    2  0.000  0.000  0.000  0.000  0.000  0.000  0.000  0.000  0.000  0.001
    3  0.000  0.000  0.000  0.000  0.000  0.000  0.000  0.000  0.000  0.000
tot    0.000  0.014  0.002  0.014  0.004  0.000  0.000  0.000  0.003  0.038
 
band    55 # energy   24.19506710 # occ.  0.00000000
 
ion      s     py     pz     px    dxy    dyz    dz2    dxz  x2-y2    tot
    1  0.000  0.006  0.000  0.004  0.004  0.000  0.004  0.000  0.006  0.024
    2  0.001  0.001  0.000  0.001  0.000  0.000  0.000  0.000  0.000  0.002
    3  0.001  0.001  0.000  0.001  0.000  0.000  0.000  0.000  0.000  0.002
tot    0.002  0.008  0.000  0.005  0.004  0.000  0.004  0.000  0.006  0.028
 
band    56 # energy   24.19729711 # occ.  0.00000000
 
ion      s     py     pz     px    dxy    dyz    dz2    dxz  x2-y2    tot
    1  0.001  0.005  0.000  0.000  0.000  0.000  0.011  0.000  0.006  0.023
    2  0.002  0.001  0.000  0.000  0.000  0.000  0.000  0.000  0.000  0.003
    3  0.001  0.001  0.000  0.000  0.000  0.000  0.000  0.000  0.000  0.003
tot    0.004  0.007  0.001  0.000  0.000  0.000  0.011  0.000  0.006  0.028
 
band    57 # energy   24.22794496 # occ.  0.00000000
 
ion      s     py     pz     px    dxy    dyz    dz2    dxz  x2-y2    tot
    1  0.002  0.001  0.000  0.006  0.011  0.000  0.006  0.000  0.002  0.029
    2  0.000  0.000  0.000  0.002  0.000  0.000  0.000  0.000  0.000  0.002
    3  0.000  0.000  0.000  0.001  0.000  0.000  0.000  0.000  0.000  0.001
tot    0.003  0.002  0.000  0.009  0.011  0.000  0.006  0.000  0.002  0.033
 
band    58 # energy   24.31547312 # occ.  0.00000000
 
ion      s     py     pz     px    dxy    dyz    dz2    dxz  x2-y2    tot
    1  0.011  0.001  0.000  0.001  0.001  0.000  0.014  0.000  0.000  0.028
    2  0.001  0.000  0.000  0.000  0.000  0.000  0.000  0.000  0.000  0.001
    3  0.001  0.000  0.000  0.000  0.000  0.000  0.000  0.000  0.000  0.001
tot    0.013  0.001  0.000  0.001  0.001  0.000  0.014  0.000  0.000  0.030
 
band    59 # energy   24.76431742 # occ.  0.00000000
 
ion      s     py     pz     px    dxy    dyz    dz2    dxz  x2-y2    tot
    1  0.000  0.000  0.001  0.002  0.000  0.009  0.000  0.007  0.000  0.021
    2  0.000  0.001  0.000  0.001  0.000  0.000  0.000  0.000  0.000  0.002
    3  0.000  0.001  0.000  0.001  0.000  0.000  0.000  0.000  0.000  0.001
tot    0.001  0.002  0.001  0.003  0.000  0.009  0.000  0.007  0.000  0.024
 
band    60 # energy   24.83322290 # occ.  0.00000000
 
ion      s     py     pz     px    dxy    dyz    dz2    dxz  x2-y2    tot
    1  0.000  0.035  0.000  0.043  0.011  0.001  0.000  0.001  0.011  0.102
    2  0.000  0.000  0.000  0.000  0.000  0.000  0.000  0.000  0.000  0.001
    3  0.000  0.000  0.000  0.000  0.000  0.000  0.000  0.000  0.000  0.000
tot    0.000  0.035  0.000  0.043  0.011  0.001  0.000  0.001  0.011  0.103
 
band    61 # energy   24.85241942 # occ.  0.00000000
 
ion      s     py     pz     px    dxy    dyz    dz2    dxz  x2-y2    tot
    1  0.000  0.050  0.002  0.022  0.007  0.001  0.000  0.000  0.017  0.100
    2  0.000  0.000  0.000  0.000  0.000  0.000  0.000  0.000  0.000  0.000
    3  0.000  0.000  0.000  0.000  0.000  0.000  0.000  0.000  0.000  0.001
tot    0.001  0.051  0.002  0.023  0.007  0.001  0.000  0.000  0.017  0.101
 
band    62 # energy   24.85346880 # occ.  0.00000000
 
ion      s     py     pz     px    dxy    dyz    dz2    dxz  x2-y2    tot
    1  0.001  0.002  0.018  0.002  0.001  0.002  0.000  0.004  0.000  0.029
    2  0.001  0.000  0.000  0.000  0.000  0.000  0.000  0.000  0.000  0.001
    3  0.001  0.000  0.000  0.000  0.000  0.000  0.000  0.000  0.000  0.001
tot    0.002  0.003  0.018  0.002  0.001  0.002  0.000  0.004  0.000  0.032
 
band    63 # energy   25.13113386 # occ.  0.00000000
 
ion      s     py     pz     px    dxy    dyz    dz2    dxz  x2-y2    tot
    1  0.006  0.002  0.001  0.012  0.001  0.000  0.004  0.004  0.001  0.033
    2  0.000  0.001  0.002  0.000  0.000  0.000  0.000  0.000  0.000  0.004
    3  0.001  0.001  0.001  0.001  0.000  0.000  0.000  0.000  0.000  0.003
tot    0.007  0.003  0.005  0.013  0.001  0.000  0.004  0.004  0.001  0.039
 
band    64 # energy   25.54188533 # occ.  0.00000000
 
ion      s     py     pz     px    dxy    dyz    dz2    dxz  x2-y2    tot
    1  0.016  0.008  0.000  0.001  0.011  0.002  0.009  0.000  0.005  0.052
    2  0.000  0.003  0.002  0.002  0.000  0.000  0.000  0.000  0.000  0.007
    3  0.000  0.001  0.001  0.000  0.000  0.000  0.000  0.000  0.000  0.002
tot    0.017  0.011  0.003  0.004  0.011  0.002  0.009  0.000  0.005  0.061
 

 k-point     2 :    0.11111111 0.00000000 0.00000000     weight = 0.07407407

band     1 # energy  -18.83670318 # occ.  1.00000000
 
ion      s     py     pz     px    dxy    dyz    dz2    dxz  x2-y2    tot
    1  0.199  0.002  0.000  0.005  0.002  0.000  0.000  0.000  0.001  0.208
    2  0.262  0.000  0.007  0.001  0.000  0.000  0.000  0.000  0.000  0.270
    3  0.262  0.000  0.007  0.001  0.000  0.000  0.000  0.000  0.000  0.270
tot    0.723  0.002  0.013  0.006  0.002  0.000  0.000  0.000  0.001  0.747
 
band     2 # energy  -17.26074843 # occ.  1.00000000
 
ion      s     py     pz     px    dxy    dyz    dz2    dxz  x2-y2    tot
    1  0.000  0.000  0.066  0.000  0.000  0.003  0.000  0.009  0.000  0.079
    2  0.313  0.000  0.001  0.000  0.000  0.000  0.000  0.000  0.000  0.314
    3  0.313  0.000  0.001  0.000  0.000  0.000  0.000  0.000  0.000  0.314
tot    0.625  0.000  0.068  0.001  0.000  0.003  0.000  0.009  0.000  0.706
 
band     3 # energy   -9.56184704 # occ.  1.00000000
 
ion      s     py     pz     px    dxy    dyz    dz2    dxz  x2-y2    tot
    1  0.176  0.002  0.000  0.007  0.005  0.000  0.200  0.000  0.002  0.393
    2  0.028  0.000  0.120  0.000  0.000  0.000  0.000  0.000  0.000  0.148
    3  0.028  0.000  0.120  0.000  0.000  0.000  0.000  0.000  0.000  0.148
tot    0.232  0.003  0.240  0.008  0.005  0.000  0.200  0.000  0.002  0.690
 
band     4 # energy   -6.35876892 # occ.  1.00000000
 
ion      s     py     pz     px    dxy    dyz    dz2    dxz  x2-y2    tot
    1  0.030  0.003  0.000  0.010  0.402  0.000  0.001  0.000  0.134  0.579
    2  0.007  0.031  0.000  0.093  0.000  0.000  0.000  0.000  0.000  0.131
    3  0.007  0.031  0.000  0.093  0.000  0.000  0.000  0.000  0.000  0.131
tot    0.045  0.065  0.000  0.195  0.402  0.000  0.001  0.000  0.134  0.842
 
band     5 # energy   -5.71681583 # occ.  1.00000000
 
ion      s     py     pz     px    dxy    dyz    dz2    dxz  x2-y2    tot